LAMMPS data file via write_data, version 29 Oct 2020, timestep = 4760000

793 atoms
4 atom types

-32.90390376854133 32.90390376854133 xlo xhi
-32.90390376854133 32.90390376854133 ylo yhi
-32.90390376854133 32.90390376854133 zlo zhi

Masses

1 63.546
2 91.224
3 63.546
4 91.224

Atoms # atomic

32 3 -4.712653484574309 -9.25403456459016 -10.341648709986481 -10 2 7
35 4 -4.578248669715717 -6.737421704446089 -11.541245166430942 -5 3 0
18 4 -5.648506954838097 -3.606640965153232 -11.063687086787937 -8 3 1
25 3 -7.110486954004871 -1.1500545567848373 -11.125834558536853 -1 0 2
2 3 -8.317163379512357 -3.3130856777239552 -11.149802682765388 -4 -6 -1
288 4 -4.403381260491934 -0.7052307549289429 -11.9491610134846 -3 8 -4
205 4 -10.032556759826885 -7.681026534683185 -4.943202597412931 -7 2 -2
148 3 -12.193510093541793 -5.967842273830392 -4.918571490876984 -4 4 -3
272 3 -5.788481452006627 -6.603740844759956 -7.062404088739877 -3 -2 1
332 3 -8.233673424541392 -7.609065649387374 -7.408585015296584 -3 4 -2
40 3 -8.296885195643531 -9.770299586106788 -5.897314472406525 -6 4 -1
26 4 -6.025645040008929 -9.401456557306426 -7.677754292757119 -1 7 -3
218 4 -5.905618195776716 -10.894904225727824 -4.947165317342547 -2 5 4
335 3 -6.352187611040313 -7.55126516346029 -9.51213964773287 4 -1 2
22 4 -6.974877132435228 -7.766148302405873 -4.893717138088429 0 2 -4
17 3 -4.826510972476086 -5.494696828633725 -9.123451958312286 -4 0 -3
275 3 -7.8927094063093985 -5.435484804213983 -6.0497311503227165 -4 4 0
29 4 -10.3574179571374 -5.356707008216059 -7.037290060611676 -4 5 -2
27 3 -11.086692853017361 -2.674490225975942 -7.342256854242101 1 10 -1
15 3 -12.942593601101771 -4.009676768467714 -6.189102314153966 -5 4 -8
265 4 -12.793051063424016 -1.3695728831426563 -5.469069367266244 -6 2 4
338 3 -11.342045829857135 -0.2683200402282651 -7.695025915997917 -4 10 -1
9 3 -9.69828367842202 -3.6176587390637 -9.231174242789237 -1 -3 -1
290 4 -5.352555183445018 -0.5586517754352831 -9.123140331609363 -8 -2 3
287 4 -9.770418765791623 -1.2302896333454245 -5.477474285348875 -2 3 -1
292 4 -8.968089952861119 -0.9547547215659523 -8.908729584463003 1 4 -4
311 4 -5.54677173198061 -3.8692881830746573 -7.004988716134201 -6 5 5
14 3 -6.96831270920887 -2.712865599015342 -8.989661803892721 -4 5 -3
314 4 -6.729633103169551 -1.1401334919920123 -6.389566677190856 -4 -2 1
313 3 -8.61311564586453 -3.2248339860448834 -7.033069748922115 -6 4 2
30 4 -7.627394753034942 -5.295718928614612 -9.047686482898673 0 13 5
296 3 -7.646631543844449 -3.1530829468418733 -4.704320204562529 -1 3 5
69 3 -8.004610853129607 -11.92547483546412 -0.8975055807874505 -5 7 6
221 3 -5.937238004684498 -11.446693065257376 -2.282741827855713 -4 3 -4
276 3 -11.186180566317562 -8.956781152137712 -2.553794832591742 4 3 -7
39 4 -11.429775914295803 -6.2692062302427125 -2.3112078349899994 -6 2 -5
711 3 -11.118986744061921 -7.646684908908753 -0.043488044511773995 6 3 -6
173 4 -9.901796149458484 -10.011181451513435 -0.46959056684370265 3 2 2
16 3 -9.177568361608367 -7.685093738991487 -2.045515921815576 -2 7 5
164 4 -8.161334725280277 -9.936777958912401 -3.0865233725275627 -5 4 8
233 3 -5.223642192616728 -9.04940803719619 -2.931672838897421 3 8 -2
144 4 -6.699241308164747 -9.645808799697491 -0.36237296023224275 -1 7 0
278 4 -6.5904209568289325 -6.96563556520493 -1.8305919232200316 -4 6 2
269 3 -8.631434480737386 -7.889185174449098 0.33394769425741605 -9 3 -2
266 4 -10.744700505093228 -3.7781494900325927 -4.523479778602181 1 3 -9
7 4 -13.5183756279592 -3.7415375850393686 -3.4112173913750214 1 0 2
8 4 -11.556482846316706 -1.0196942990691809 -2.635582338382332 0 -4 3
610 3 -11.061473363560923 -3.663039497757524 -1.7774144741933617 -2 6 0
706 3 -14.14573422893568 -1.0103763015117904 -3.0167779490382363 -5 4 2
316 4 -13.333956765005768 -2.37701895198887 -0.6961391646256336 -4 2 0
279 3 -7.628942669237696 -2.600007324739278 0.024292362903951665 -3 -2 -1
165 4 -8.211129519949807 0.03717236079503907 -0.4416993979000081 -4 7 -2
354 3 -6.643561845863205 -3.7247269886624896 -2.3954639774799094 -4 8 1
302 4 -5.368034762884641 -5.2419752196429625 -4.366646871888338 -3 0 0
267 4 -8.62698029139119 -5.397858503163829 -3.451223508881252 -2 0 6
322 4 -5.572429456360968 -1.245580448610025 -1.7674831061198322 -4 2 2
5 4 -8.853757408727395 -2.195349907745084 -2.3715777045261572 -6 7 -2
301 4 -5.699928744187655 -4.376397746445929 0.006665761612553704 0 0 -2
327 3 -5.260535314358925 -2.3844468322120376 -4.351365923131297 -1 0 2
268 4 -9.042853996031623 -5.016901010638681 -0.4298225296161308 -3 1 -2
277 3 -7.242764288672251 -0.6781790663857666 -3.805788924740467 -10 4 4
184 4 -1.9306347059677451 -8.75073724737358 -11.214078779180038 -3 -1 -3
259 4 0.6052554577025347 -6.348486098816886 -11.770246910045866 -5 6 1
33 3 -2.0509754372333417 -6.460965160411978 -12.70165746706728 1 2 -4
246 3 -0.4964115408950524 -4.470193966584283 -13.204683895034194 2 3 9
1 4 0.22410329962619124 -1.9290771088650542 -12.944020386107828 -6 2 -1
212 3 -2.3145731688205697 -1.2692646758577908 -13.669190126682658 -2 6 -5
13 3 -2.13805445129346 -1.7031800869108835 -11.084806266940912 0 5 7
23 4 -2.955470115225454 -3.8006169343035148 -12.503818356531257 -5 5 -3
247 3 0.9511107331531684 -9.022648695041084 -10.873864278116315 -8 3 5
235 4 -1.1172252818358888 -7.9312639459881 -6.290446837242931 -7 8 0
24 4 -0.34554519544081663 -10.348271011108753 -8.682314252446062 -10 2 3
361 4 -0.12805950348213402 -7.544731692930618 -8.99662127827868 -8 1 -2
204 3 1.407606510651231 -6.223055563980097 -6.931329637251826 -6 6 5
28 4 -3.16747336732755 -10.554084583544507 -6.776635558344603 -2 3 2
161 3 -2.9146776834304897 -10.531802467211275 -9.405313398190865 -9 -4 -7
181 4 -3.4089526559239767 -7.887800059926696 -8.532529392267328 -2 2 4
19 3 -3.35773993484537 -5.690161134890149 -7.015850715554739 1 8 4
245 4 -2.2341765759324526 -5.637101837761868 -10.137110136740937 -4 0 1
203 4 -0.2508489678393793 -3.482201637374452 -10.449915080972701 -2 5 -8
289 4 -3.5533735655691294 -1.115844437390638 -6.324334226387088 -1 2 3
20 4 -3.346554817460888 -3.0181980864726405 -8.990221092511236 0 -1 5
200 3 0.08891802336525534 -0.8834310362425289 -10.180262911304585 0 6 3
253 4 -0.9181076996980043 -4.874873233862813 -7.566641338557928 -1 5 1
252 4 -0.7772344579449192 -1.8258677504301397 -7.64154473663976 2 -1 -1
234 3 1.369328253976941 -5.249000470317797 -9.366928580672248 4 3 4
135 4 -2.0563942336705314 -12.792082566661266 -0.0508929279245622 -8 5 0
120 4 1.2183754802542777 -12.767610566076234 -0.13294709262044477 -3 1 -3
177 3 -1.6140244655068088 -11.890950186416408 -2.6998669524392422 3 1 -6
123 4 0.9753192583378396 -11.156229365785485 -2.596886713681897 -6 11 5
102 3 -3.879794444489347 -12.57247391933244 -2.1016791935508534 -3 -1 -1
226 4 -0.49576275577720363 -11.011146602505988 -5.414661577936707 6 5 -4
239 3 -0.877453253510948 -10.26635363687343 -0.7755024608696328 -5 4 6
223 4 -1.4212184528769 -8.873307121714667 -3.2530438021571615 -5 5 0
180 3 -3.371623017960446 -10.594821509547968 -3.929228137099971 -4 -3 5
229 4 -1.5235073846187022 -7.724158706571456 0.1272028493661787 -4 7 -2
241 4 1.3514163789407325 -8.24930112618544 -1.392604854422436 -1 5 1
37 3 -0.889251813116655 -6.28605383545597 -1.934261082240075 -5 3 -2
519 4 0.7454007554165024 -6.501602233751728 -4.042589199683251 -3 2 3
222 3 1.2374429733726144 -9.144025551734655 -4.239063652865471 -6 1 -6
521 3 -1.9946416967482965 -5.955218374715964 -4.494806762882554 -3 1 1
219 4 -3.5098352589323176 -10.079103906223642 -1.1833557096801879 1 4 6
220 4 -3.5479437330909027 -6.927600708209503 -2.49501736009232 -2 -2 1
224 4 -3.931057062307844 -8.089493583703257 -5.267640245618831 -4 5 5
243 3 1.1754593765209709 -5.41414410129501 -0.8780498049032557 1 0 4
309 4 -2.842465548682185 -3.656706760501115 -5.326526128126336 -1 0 0
561 4 0.8256356409451535 -2.274403834171798 -0.2939247813842898 0 4 -3
237 3 -4.061912359225124 -3.8424577766644314 -2.4802653817821954 -3 6 -3
225 3 -3.204781226064558 -1.4627164051556432 -3.156898538576727 3 1 -8
264 4 -1.2783724978846411 -0.4933520072879446 -1.5230828773541543 -6 5 4
570 4 -3.1900850514625456 -2.537550576104072 -0.18959622718123356 -1 5 4
257 4 -0.7639160176049995 -1.5517622016022226 -4.511514772512805 2 1 3
585 4 -1.3922014150917559 -3.7485107949724257 -2.3963301464364233 -7 4 1
377 3 0.08444874950050761 -4.093820443749658 -5.232313601862298 -16 11 2
273 3 -3.11447059364885 -5.320157239701855 -0.5273800465938193 3 11 -3
185 3 1.463080927806189 -11.733282471391469 -7.364280219767449 -5 3 -1
359 4 5.440772772656591 -8.596031537559494 -8.26256539674711 -8 0 1
117 4 6.692920235227423 -11.040274478130565 -5.480779890205345 -3 -3 -2
129 3 5.21477329860507 -8.654699930153006 -5.563464114774276 -7 4 3
367 4 7.780489312897138 -7.884787680198065 -5.9990946902320745 4 1 2
179 4 4.052826814193644 -11.122045982116314 -6.96020238520685 -1 0 0
176 3 3.8493845868326835 -6.95775853804809 -6.661938158692677 -3 6 -1
739 3 7.7686750055852425 -7.122404912795267 -8.571534043414466 -2 4 -4
201 4 2.9438746534712967 -7.511446778824422 -9.42666700463931 -5 4 0
31 3 2.5855653879545413 -10.098450008731493 -9.101487515222983 1 3 -7
178 4 1.917191380902228 -9.025966115716562 -6.709059746770598 -5 1 2
130 3 2.1435727615035782 -11.784409153698345 -4.990632521317105 3 3 -7
101 3 4.590864223228438 -12.584099837141688 -4.700270330632402 -3 2 -2
417 4 5.656353363374829 -12.11058794293403 -2.082533210362874 -1 2 10
152 3 3.03972208572609 -12.763438746810968 -2.661704555031012 -4 7 1
480 3 8.057761423862638 -11.877924402384407 -0.4765124446074426 -6 1 6
133 3 3.824548491608795 -13.278187214378779 -0.4177000716663146 2 7 -4
192 3 8.137358218536116 -11.535462389239347 -3.0390827220181866 -3 6 -5
524 3 3.2760909517034964 -6.6070028115533646 0.31955477615941713 8 3 -2
244 4 3.8470593686963226 -10.144842951122612 -3.8663232687421547 -8 -2 1
188 4 5.652399892988858 -6.304326374437564 -3.907361478155585 -1 4 -2
118 4 6.748670295947337 -9.178892013938519 -3.2513601354955384 -5 -1 4
481 3 7.090023706517041 -7.370307051946451 -1.147874817161006 0 11 8
503 3 3.2236724858570955 -7.585200788561932 -4.222712831898657 1 0 -1
109 4 4.420375603731296 -7.96370689762769 -1.6389431415911349 1 4 -3
108 3 3.2482514659047825 -10.646655049119643 -1.128333115167945 -4 -4 -3
131 4 6.081860708527635 -10.017984290806579 -0.1081867379477115 -1 2 -5
105 4 5.41439510894048 -3.222106422201937 -11.58767191663097 -4 4 2
113 3 3.334683706661681 -5.376230889802864 -11.078709189018047 -15 0 1
381 3 3.184850839449088 -1.9446920162162427 -12.690999699172053 0 11 -2
3 3 1.843256450614231 -3.948865517254026 -12.43535346492492 -4 -7 -1
366 3 5.144459543464365 -0.4899817750072517 -12.378458100797841 -3 -1 3
213 4 5.772274584347945 -5.962221907885242 -10.061073443667647 -10 5 2
365 4 7.577287422994828 -1.627267494390555 -10.097054319073155 -4 0 1
112 3 5.786547897569879 -3.461065526815222 -8.970273459627252 -4 5 3
182 3 5.601332751165481 -3.5517781851125427 -5.1698850181965135 4 -2 -11
34 4 6.119856491153774 -5.441510777941132 -7.030078061325086 -3 6 2
215 4 7.732985191860078 -2.4321434554773007 -6.748480023661214 -3 6 -3
649 4 4.357455741709827 -2.294861109789457 -7.1126576564646955 4 7 -1
206 4 3.088843101404005 -4.698476138584854 -5.3603319663106515 -5 0 7
363 3 3.6896096206768205 -4.9754174760284835 -8.357399934853225 1 3 -3
263 4 2.7479444602246907 -2.8694812436414687 -10.069702713737893 -3 5 -2
262 4 4.826229457049366 -0.4883019565192458 -9.795528849575744 -2 1 -1
547 4 2.0062682103870024 -0.5997107930263476 -8.141536895905944 -5 -2 0
625 3 2.7898138172072264 0.005058571316350242 -5.433925483050291 2 3 -4
254 3 1.5874373084919793 -2.0756108862353333 -5.6862733449391545 -5 3 -2
207 3 1.5593636388046905 -3.476813227878585 -7.643982990196592 1 0 6
648 3 6.803149767433334 -0.16875000103978594 -7.811704636085743 0 6 3
500 3 7.8215353223236965 0.014143807741335687 -3.5865795048784954 1 1 -4
552 4 1.613500937606373 -3.495756152386976 -2.8789148140772203 -10 5 -2
501 4 5.6897144122760865 -0.4835622545914182 -4.99652624262065 3 7 3
586 4 1.453721991137096 -0.35104982015804026 -2.9801040319505563 1 7 -3
256 4 4.969329241336992 -3.6058405544672736 -2.4892258296364687 -5 1 -6
507 3 7.216238816674726 -2.5659897253015966 -3.784457843711376 -5 4 -1
186 3 5.485101536145035 -5.442227464904671 -0.5925608498255216 9 9 -6
497 3 3.593433207195721 -1.958529571415066 -4.141692406236389 0 9 1
187 4 3.249286556345232 -4.028978160409335 0.22014590934470132 -7 3 -4
549 3 3.4367011943915764 -1.6388130576506208 -1.5185254097343002 -4 -4 0
543 4 5.764935727009718 -2.102880663628033 0.2437980067854413 -7 4 -3
499 4 7.7562274313011725 -4.674764018772439 -1.839684156345971 -1 5 -4
216 3 5.7913110365137594 -0.9026667884026798 -2.2205957547701667 -4 6 -4
261 3 3.1789991016272614 -5.751111244319594 -2.334902123314442 -5 2 4
100 3 8.072479503849324 -1.9345304175628752 -1.6688793322600743 2 -3 4
362 3 9.487349204156983 -6.065758487898393 -7.134473933379347 -6 6 -4
36 3 11.61721665423966 -1.2943142997113084 -6.132369537870184 -4 2 1
114 4 10.782408867674505 -3.8650619952719683 -6.308201742408617 -7 1 0
82 4 10.104263456250246 -1.309458287245583 -8.354048704155458 -5 -2 -5
104 4 8.555179920952458 -4.414361135596992 -8.976588526833575 0 -1 2
196 4 10.784730725525009 -7.103243673381439 -4.894035995576709 -6 4 1
211 3 9.2004805364438 -9.548741496612523 -4.269474666047167 -5 1 1
125 3 10.862493090713714 -8.50764649102893 -2.7036369054822904 -8 4 -1
191 4 12.889319437836619 -6.808131185398461 -2.155343059269913 -2 2 -7
128 3 11.54408738134563 -8.710166187223294 -0.24856009907916127 -2 4 -3
98 4 10.050546950561163 -6.607208367538852 -0.8251100334382865 -1 5 2
96 4 9.001848970238962 -9.56453654111606 -1.3194962235030432 -4 0 2
422 3 8.655888931775069 -7.167175124106802 -3.1649440659913446 -3 5 5
504 4 8.27595771130468 -4.906221184432977 -4.914522069387062 -4 0 -1
190 3 12.96695890679751 -5.414001530900971 -4.51165746839449 -5 1 4
195 4 12.969622143952806 -2.8199287049275887 -3.9808128317407157 -4 7 5
110 4 10.746618235067025 -4.8150521031402285 -3.0753775205964757 -1 4 7
214 4 9.861121127755013 -1.9709989819665419 -3.812592429710148 -2 6 4
496 4 12.908241338801485 -4.054664505966167 -0.8835239118198606 0 4 5
208 4 12.099322466972982 -1.1714247336938048 -1.5538773789996816 -1 2 4
498 3 10.238178821827422 -3.2411846097762744 -0.9845535730867104 -4 6 4
474 4 9.61034665676583 -0.8663331055233687 0.14474189553183256 -4 2 0
93 3 14.552531097139422 -1.9320007680456175 -2.0320733502333703 0 6 6
249 3 -6.0081444461044216 1.1962246112538806 -13.006917201928252 -5 -1 3
385 3 -4.763912220588305 3.0939963723006265 -14.01959345703032 -3 3 1
333 4 -6.7097780319760085 3.975203002632151 -12.484879546773344 -6 4 3
336 4 -11.664170740383332 1.4544317904431605 -5.6906650065139806 -2 1 3
340 4 -10.086733319782738 2.0997622715003805 -8.656012380093944 -7 4 -1
12 4 -7.30593840800812 1.492987240179347 -10.636219322957405 -2 0 -1
291 3 -5.096625208935668 2.3778936553728687 -9.05155619152974 2 8 3
294 3 -7.1599192501750295 1.0626251600527705 -7.882558993464582 -7 4 5
391 4 -7.5138327022910305 3.65750067213623 -8.041410861665025 -1 0 2
318 3 -9.121128117748723 0.9891022462921255 -6.5442275841367215 -5 3 -4
11 3 -8.698231128251829 3.797745281385811 -10.628657047706199 -3 12 1
390 3 -6.102360895145616 4.382850473730808 -10.08042286153468 -6 -1 -8
293 4 -4.81831316546326 4.670449945737515 -6.892773166362564 -8 -3 1
4 4 -9.56175063130796 3.6034316540161484 -5.582008743985559 3 -1 -1
337 3 -9.979250479072988 4.802671214698169 -8.642739172235274 -7 7 -6
298 3 -6.984624700803394 4.5890063545939 -5.2894045260828975 -10 1 -1
402 3 -12.525065151159021 3.7932288924194713 -4.670558418596089 -1 5 -2
331 4 -12.978983679273295 1.6071626927387115 -2.8904263964024777 4 5 -2
688 4 -10.704503175373015 3.729687261566951 -2.6636894744351647 -7 -3 -2
705 4 -13.469681973210754 4.638571432498763 -2.174647397754527 -10 1 1
21 3 -13.684204441945294 0.2632415856661302 -0.7384010136224867 4 6 2
315 4 -11.036199134256035 1.0165351130371305 -0.32229630927842606 2 6 1
709 4 -13.571699016896757 2.7948706680619773 0.28739457664210943 0 6 -2
345 3 -4.963146154224658 0.3204556036338091 -4.09388082243509 -6 1 2
305 4 -4.909839114180888 3.340531318623992 -3.764484146976809 2 2 -3
341 4 -7.04737405444408 1.8172320978440835 -5.135015224576551 -7 5 7
710 4 -6.129879951635924 3.533131111355528 -0.6594521975948406 -6 -2 0
713 3 -8.654307073504354 2.666102735193629 -0.8060134261799345 -8 6 -1
295 3 -7.8941278743842 3.539904861653842 -3.118147472798541 1 2 -2
698 4 -9.43445922886278 1.018305068647606 -3.341329617724963 -2 -7 -2
405 3 -6.561505436731963 1.3967613477560739 -2.2303436043089664 -6 3 -8
10 3 -5.660309252360123 6.484695138877159 -11.308710912810048 -5 5 1
393 3 -10.39817415760027 7.262680673709517 -8.508338254035188 -3 6 -5
700 4 -11.471588948455018 5.541825151528974 -6.563121453222143 -1 4 1
752 4 -10.706238145340752 8.42978297035227 -5.916340239821723 -1 8 -2
339 4 -8.16592611267097 6.400299873058825 -10.052802104604407 -4 3 -4
372 3 -6.056511652314197 6.482158709599369 -8.459900486993055 -1 6 1
748 4 -5.706553456316938 8.71901107507239 -9.824665879660545 -2 7 2
404 4 -8.511356794149743 9.241345506230099 -8.252805944449511 -2 2 -5
388 3 -6.150943053042321 8.727686240090039 -7.105419366136888 6 5 2
350 4 -8.300145075529135 6.334212333674247 -6.88746608621738 -1 6 3
343 3 -5.789780058247512 6.961384802208106 -5.460250424423658 3 1 3
753 3 -7.985830029664734 8.532241595248598 -5.351960089020424 -6 6 -5
719 3 -6.394837541907188 10.939234349211123 -8.50253284428288 -3 -1 -1
386 4 -6.766714385824185 10.966716705861215 -5.890775083215119 -4 1 5
671 3 -9.377172738129289 10.75982404047192 -6.068741937695944 -1 3 3
317 3 -12.101646618117366 6.20556363286687 -3.9473153486079227 2 -4 4
352 3 -11.057919671790579 8.464415327099687 -3.197531527171436 1 2 4
334 4 -11.28540431524243 6.73844213817426 -1.2033293649147947 -1 2 -7
672 4 -10.209794782186966 9.618297416052224 -0.7304284711214465 -5 4 1
349 3 -13.162089382109839 5.581387559414134 0.3250334889307651 -6 0 -9
411 3 -6.520247908229993 8.699876997116874 -3.3788540005386563 -6 7 0
319 4 -9.446184406054716 6.291338713653925 -4.007211003993329 -1 -2 6
413 4 -6.5763550262832045 6.021255144649978 -3.0290340592000335 -4 6 2
675 4 -8.947997197271405 10.074135208466684 -3.4380797212687995 -5 3 -5
344 3 -8.550758451392026 7.744085201413757 -1.9892840790655877 -5 1 2
677 3 -8.632599378825287 5.233474617310914 -1.3596505047843888 4 0 -2
414 4 -6.881295562353643 9.42705198805405 -0.6532217966500361 -8 4 1
403 3 -6.365174894518225 6.322336504372608 -0.26418216587949567 -9 6 -1
741 4 -6.079179568903863 11.465179217175459 -3.0174668362631563 -2 5 -3
356 3 -8.24645248897951 11.891857458154872 -1.4323842717708122 -4 4 -3
716 3 -8.341085005419412 12.450334289179715 -4.232856243779443 -5 2 4
183 4 -5.610004985822895 12.36643171427566 0.023717967784045044 -3 0 3
374 3 -2.295518878468669 3.265321025923167 -13.165458614000976 4 1 -1
250 4 -1.1727911197603045 0.7870582654191404 -12.245623151628562 -1 4 -2
371 3 -3.5014591969076005 0.962628791094267 -13.86780685725877 -1 1 2
389 3 -4.044205827676813 4.943259181018359 -12.445170136496346 -3 6 0
376 4 -1.1848041578941586 5.400289630396104 -11.931733828924951 -7 6 -1
357 3 1.2769409221767498 5.806821808319065 -12.853114772128087 1 3 -4
743 3 0.21293900917403144 7.718231238400016 -11.646844652847435 -5 9 -8
745 4 -3.055586463918904 7.736247230490858 -11.504264700032923 -3 4 2
199 4 -2.519732050608992 0.4439362957493448 -9.230630272568163 -1 -2 -7
202 4 0.26907391039070505 1.7390472289475596 -9.17581769595389 -1 3 -2
299 3 -1.5682529307581612 2.961023448339468 -10.696337992819423 0 2 -2
251 3 -2.6657348202517466 3.095449394619929 -8.312623371503085 -5 -2 4
544 3 0.3577902404268392 0.2006142666509598 -6.191359284250528 -5 0 6
392 4 -0.33304151760438355 3.601476618105763 -6.8475630157224066 3 1 0
303 3 -1.703707349764556 1.2646751762792967 -6.72016128375892 -8 4 -4
380 3 -0.744141322669489 4.699097112452666 -9.28246042179404 4 3 -2
383 4 -3.537921596991584 5.285407849797703 -9.739111173623122 -4 4 6
248 4 -4.073298866436991 2.3941317010172973 -11.439034428960113 -8 1 -1
751 3 -2.1020458948469374 5.533807457499727 -7.142979186455509 -3 -2 8
300 4 -4.464145971633906 1.6744717167982353 -6.682941882413482 -3 6 2
395 4 -3.7675662202346736 7.649218392418823 -7.410594507797875 0 -3 2
406 3 -0.964375120987195 9.61173774715005 -10.903954688257407 -4 7 6
412 3 -3.131226790321958 9.501416511827781 -9.435589462154116 0 0 4
747 4 1.5632941752425105 9.113352949256301 -9.656004809885635 -5 4 -6
744 3 1.1600884890463121 6.118221788930456 -10.11041769952154 -7 4 6
726 4 -1.0768630461191642 7.625193738307657 -9.120102409043833 -4 7 -3
382 3 0.4523224947455776 6.055231928202989 -7.567831443157787 -5 -2 5
658 3 1.0518095738881583 8.419914341898377 -7.067402731019671 -2 -1 1
731 3 -1.079139161249583 10.505908367547605 -8.599549943227817 -7 4 0
750 4 -3.9451990215718373 10.84604245616462 -7.290108184401888 0 4 -1
408 4 -1.4457892034720083 9.180508430675198 -6.359105530988671 -9 6 3
652 4 1.0969026650249096 11.18847502577442 -7.265197878580435 -2 7 0
387 3 -1.4312854462906974 11.921742448083336 -6.287035171265805 -6 1 1
542 4 1.5676471258022848 0.6359441749623399 -0.0740877052053811 -6 2 -1
379 4 0.8786623530794341 2.1177967723709727 -4.515021353156694 -5 3 -2
306 4 -2.1971964577732663 1.1896492064484223 -4.121096572645158 -2 3 0
583 4 -0.19932831077815275 2.538577209506355 -1.6971835881778023 -1 4 3
304 3 -0.8919361844606588 4.036966010869603 -4.159528525499044 -5 5 7
297 3 -2.776140296890575 3.5608132375064665 -5.592017896228773 1 1 6
399 3 -2.5904888374982873 3.48205551518455 -2.5708966413010255 -3 3 4
283 4 -3.788612380994542 1.2812238485569087 -1.3816762625807688 -10 7 -3
398 3 1.1461955208053634 4.940918038143142 -3.0940128455039844 -6 2 -1
584 3 -4.305484930676069 5.218696466009406 -1.597759289144692 -5 7 -3
587 3 -2.7473818048580223 3.8382892147800574 -0.18055259658662487 -2 -2 0
400 4 -4.245906509163787 9.271433983744064 -4.603909050223904 -5 9 7
394 4 -0.25361261535672264 6.628527676488996 -5.0910441516223495 -5 4 6
749 4 1.016806198583207 9.735180685741117 -4.6794616781131015 -7 -7 0
360 4 -3.348219632480733 6.067717390050999 -4.352874193504968 0 1 -2
518 4 1.3130313635867787 7.70427910868288 -2.3714663170939914 -6 2 2
397 3 -1.7200769901408528 8.227897340924038 -3.7075292600923917 -6 -1 -7
307 4 -1.249045862734979 5.783797873437286 -1.952454606425425 0 0 -2
635 4 -4.369095865091027 7.888620817792509 -1.744301699890644 -4 11 -4
346 3 -3.9855671325405235 10.597913700043115 -1.672219207998856 -8 4 -2
169 4 -1.5026154619841485 8.91389699095933 -1.1608880437308786 1 10 9
396 4 -1.8644317091288813 10.975061019074221 -3.6840684013060767 -2 2 4
369 3 -1.7170245929436465 11.664695473512063 -0.8528565698962081 -4 0 -4
342 3 -4.008829055126064 12.10777602205592 -4.846895155038542 -3 7 7
410 4 -3.5382542466753195 13.179784302520387 -2.2233943113462535 -3 2 1
409 3 -0.8858312193697223 13.65592927232966 -2.324248069341837 -4 -1 2
727 4 0.6554519150503098 12.922269393728438 -4.478340567241885 -7 8 -2
715 3 -2.0986292172288956 13.662215765933322 -4.494665330513824 -9 6 6
162 4 0.06876213099823263 13.38217616977237 0.22616701219348 -7 -1 3
655 4 0.7393311653496064 11.107403073275332 -1.9936110560734615 -5 2 0
661 4 4.676790350055197 2.317569470578133 -11.661923984684755 -1 7 -1
373 3 3.669991149572682 4.859930686405831 -12.678771534480685 -4 -10 -3
370 4 2.1516960370428198 0.27710398659733815 -11.535745475393608 0 2 1
255 3 1.7999169376030488 4.143405214297453 -8.569433853822668 -9 2 -2
511 4 6.646602541177881 2.2104866922487774 -6.224079586978066 0 5 1
545 3 5.783876135359542 2.05283757398844 -9.16783638009847 -1 4 -1
209 3 4.371167754056766 0.6942930079550775 -7.287241879325307 -6 -1 6
720 4 4.19273828145991 3.5498423179353162 -7.559615833659401 -4 6 -5
260 4 4.418343285516108 5.135958524929796 -10.142919969331512 -1 -2 0
730 3 4.6732636380210355 5.933504703703712 -6.2014477880280126 1 -6 7
358 3 3.1074912631885296 1.9134670950371506 -9.488290005965855 3 6 6
659 3 2.027622214009043 1.9975064987839914 -7.016817469363474 -8 3 6
364 4 2.901914398120722 6.729388362946922 -8.04783700749795 -2 2 5
375 4 1.6420833124585505 3.71568488229488 -11.301136891339421 -7 4 -2
107 3 6.932273736701763 0.8406632192692869 -11.059172151298036 -4 4 1
667 3 7.219534638933713 3.3692458887953283 -10.923387697279416 -8 10 3
754 4 6.961353765075237 4.463332040555985 -8.547102249934666 -4 2 -3
734 3 8.95448017977114 6.065014348858598 -7.816944395951058 4 -1 -4
737 4 8.558362047664115 1.5505101065542024 -9.009661344891178 -2 4 -3
732 3 11.290117018151811 1.2184053353135131 -7.156892188902711 -6 9 -3
735 3 9.370568221522268 4.063458588611226 -9.516825957084285 -4 4 -1
502 4 9.694169180688009 3.6616679351088712 -6.786947317011738 2 11 -1
589 4 4.829602224661537 4.274039135048922 -0.31616338335517213 1 3 2
588 3 2.1811002579756016 3.183787455110879 0.10678686264362226 8 9 2
546 3 3.9633684036346724 0.4387531261253862 -3.0049040645657823 -9 3 5
551 4 4.554673792186254 0.943054397189337 -0.2590998401397305 -8 3 1
662 4 6.0787338926994705 2.2309578844499875 -2.896359257683296 -8 2 0
645 3 3.830152957903513 2.1520088111021973 -5.06481185267477 -4 0 4
593 3 5.03807079351353 4.165500630872093 -4.647437329931675 -6 7 0
548 4 2.9926829986672057 2.922446466425777 -2.4679957206913525 -5 0 1
378 4 3.819443796189844 5.861262713175417 -2.9667655679496248 -4 -2 5
632 3 1.7820416884424353 5.247333573785133 -0.8800111570350772 -2 8 2
384 4 2.2222173834552645 4.656002405228781 -5.4891978859767665 -5 1 -2
663 3 6.792167548106481 2.514974398475198 -0.19090606251536923 -7 0 -2
653 4 6.8116849589997415 5.235055513904865 -2.5359931070820387 3 4 0
509 3 7.531522134928071 0.43018542422036454 -1.1291348716911223 -2 4 5
553 3 8.497620725456459 3.361957387245644 -1.6987443163844593 6 8 5
484 3 9.313083681491253 1.8468557093953917 0.26066081995394574 -4 2 4
670 4 9.683892306660319 6.645318588302109 -1.0321653412296725 2 -1 7
83 3 10.83972763479463 3.73246488893994 -0.6243098285566399 -1 -2 2
478 3 11.693888968636141 1.1258399989030263 -0.2620717087181289 -7 1 -8
81 4 10.160557204049503 4.655456714595688 -3.398624628353342 -2 2 -1
506 4 10.048539039219762 1.2095976931919614 -2.4496112823769325 -10 4 1
258 3 8.380256440924681 2.707553907668093 -4.191726194935565 -1 0 -5
103 3 11.099462036853764 2.4873416942697606 -4.782592758757637 0 -3 6
647 4 7.470158315837806 5.2681574962984286 -5.603171719080217 -8 5 -2
651 3 10.315278630162952 6.350618748343832 -5.620314322286371 -4 1 7
89 4 9.252594874221625 0.38828926875928865 -5.864951362688595 -1 2 -4
554 4 12.732956169542387 2.7839165503574392 -2.1978951792368338 -1 4 8
106 3 14.131764388027209 0.524396363736149 -1.989558099152785 -3 3 4
505 4 12.569973668982845 5.871676290232854 -1.2766199208716194 -1 11 -2
91 4 12.429396786506327 0.26087445018913163 -4.278846562932768 -1 13 -10
116 4 14.297465766602224 1.7078505149238268 0.36055905817199535 -7 0 4
92 3 2.7934158571855794 7.077700399146878 -11.30839442241897 -11 1 1
746 4 6.201068922244964 7.398457353164115 -7.910573003154024 -9 2 1
725 3 4.30833201900178 8.284106416490554 -9.655273969508826 -4 6 -2
401 3 6.56210436286623 9.621005147358815 -6.259542021979594 0 3 2
717 4 3.8302626871233643 9.418149008440738 -6.757849725153826 1 5 0
664 3 2.7014346487313965 7.396311820205416 -5.241265296053634 -2 -5 4
718 3 3.0667112523159434 11.520232247525053 -5.270734516702514 -4 -1 3
728 3 8.429212943114827 8.043613840813272 -6.364162595678 0 4 -5
465 3 4.7567600346808865 8.248192118933206 -1.9465115477959063 -2 -1 -6
646 4 5.727613020687744 7.752243731442213 -4.570757694887875 -2 4 -5
733 4 5.884883958331605 10.694207619167553 -3.7271494951612962 1 5 1
308 3 3.4001276944847487 9.294908997211785 -3.6220074077059046 -6 -4 -5
495 4 5.49414573140762 10.328995161180515 -0.3441126026948333 -2 5 4
591 3 2.758384730989468 9.546073946371791 -0.9863664568250478 -6 5 -3
668 4 6.636713938459573 7.220484253299405 -0.32214242700377616 -5 1 -3
657 4 3.5136315049553 7.053068320392775 0.1758696395770341 1 4 -1
714 4 3.3817522010976417 11.913905218811117 -2.7207867889950696 -3 5 -1
407 3 10.486186807353942 8.888277487661817 -5.049238602253045 1 9 -3
368 3 11.388269630352523 7.22757205582618 -3.267556844382212 -13 1 7
426 4 8.710848979761987 7.375814056513712 -3.788713644376441 0 3 2
755 3 8.38931713453344 10.009587007002875 -4.4185158361534915 -3 -1 1
602 4 10.179748019303663 9.583750023465278 -2.3672160206122137 -2 3 2
729 3 7.302682264499997 8.93181777924887 -2.310354115396741 -5 -8 5
722 3 10.429593927892178 10.553782957676397 0.13551654328751123 7 4 -5
724 3 8.590171202600722 8.958553971110856 -0.1338031402626927 -1 0 5
466 4 8.03948305783526 11.430019477257476 -1.2762891445219724 -7 7 0
660 3 11.901606802746333 8.360625341318181 -0.8211654697661164 -6 -1 4
633 3 1.6495365261354105 13.779631529056223 -1.9085538295436488 8 5 4
723 3 5.656897718662028 12.703807367458568 -1.7181769422140993 -11 0 -7
644 4 3.1574947149996886 12.36180284858389 0.24752232832151436 3 1 4
167 3 -8.2214028920606 -10.11933300643469 4.931341770226869 5 -6 -2
145 3 -8.104051562875593 -10.900849856546627 1.52205079438274 -8 3 1
150 4 -6.289582510125609 -11.318676563400537 3.430007799208967 -5 0 -1
139 3 -4.664709279974724 -11.728093142506959 5.418381870791484 8 0 0
146 4 -5.3244586154276226 -12.257110324076498 0.39950590859008195 -2 9 -2
171 4 -12.098707894540924 -4.970458067594745 0.5018048726394494 -4 -1 -1
312 3 -11.287306748932389 -5.631837286780403 5.154984898022957 -6 3 -3
158 3 -4.8450813659595005 -8.138577473673916 3.3052466650387653 -5 4 3
68 4 -5.769736396668094 -9.166634806040815 5.663270523096668 -16 2 5
691 3 -9.959036123132446 -9.142086621613515 2.127902129773113 -8 6 -2
274 4 -10.010666135017933 -6.467586172970427 2.263404583372725 -1 9 4