LAMMPS data file via write_data, version 29 Oct 2020, timestep = 4760000

3675 atoms
4 atom types

-30.0 30.0 xlo xhi
-30.0 30.0 ylo yhi
-30.0 30.0 zlo zhi

Masses

1 63.546
2 91.224
3 63.546
4 91.224

Atoms # atomic

6 4 -11.121244531101585 -7.490786466046263 -19.312491725332993 -1 1 2
521 3 -10.843399300918929 -14.774690710987192 -16.25997720473581 -1 0 -1
399 4 -9.329116791204896 -13.081928280897692 -14.976181726616993 0 1 2
3 4 -12.441181569781412 -13.16377008249162 -13.932585995387898 -2 2 1
376 3 -10.721521330183691 -15.226334226771073 -13.723279440480512 -2 3 0
120 3 -14.457077248799441 -9.025920135245684 -16.10802823076227 -2 0 -3
392 3 -16.63698835710864 -8.151447704765088 -14.790435586418626 -1 2 1
345 3 -14.457001451494117 -7.045178188047136 -14.357210795291872 -2 4 0
686 3 -14.139220131672621 -11.518336723726245 -15.345087138319196 -4 -1 0
129 3 -13.752215044033544 -8.135263087544509 -18.374648030005826 -2 1 -2
1292 3 -10.030161414954337 -12.403083946621454 -17.947594843529195 -2 2 -1
821 3 -11.814786034565826 -12.37488719129916 -16.360626619025474 -1 -1 -1
4 4 -12.241748837158383 -10.21773161664878 -17.78667001782608 -1 3 3
394 4 -12.423198926753056 -7.10921583733954 -16.296712348231228 0 1 0
373 3 -10.297411772786806 -8.513679514615967 -17.024307200158788 0 0 2
266 3 -9.417066853430414 -10.160089690214415 -18.9423434851664 -3 2 0
339 3 -9.906263449393963 -10.663605713782552 -16.117320557712453 0 1 1
375 4 -12.147366156331799 -10.017041765735948 -14.732831806919581 0 2 1
395 4 -9.830171438815517 -7.9695210549026845 -14.393708663226034 0 2 1
611 3 -9.274851144543163 -18.895161094756034 -9.935852399421112 1 1 -1
907 3 -13.643037325145983 -18.65949265609827 -8.449343379323 0 1 1
10 4 -15.62311401936261 -14.821478190517013 -10.19695112788406 2 1 0
1367 3 -15.744453047766395 -13.098489255810557 -8.219651968709833 0 3 -1
338 3 -13.557846821007796 -16.360404799966705 -9.688524107856324 0 4 -1
906 4 -13.164184019629646 -13.233297113760592 -10.059536820708729 3 2 2
240 3 -12.834406701195045 -15.101252013776591 -11.863874842725295 1 1 1
534 4 -10.380875704791666 -13.26308571976745 -11.628108495944849 0 0 0
502 4 -10.248578218391044 -16.45079427827103 -11.373671998413217 -1 0 2
13 3 -11.715565227357457 -18.01838165703554 -9.890795358611227 1 1 0
632 3 -11.483869772462423 -15.156524363804948 -9.462285867908651 -1 4 1
533 3 -9.803706366916034 -16.76436437697006 -8.613115140747261 -3 1 1
930 3 -20.224237974524115 -7.5735178441914925 -11.341088777497133 -1 1 0
1342 3 -20.656207830435324 -8.79515449349786 -9.12068546848597 -2 0 0
919 4 -15.080999229488278 -12.570178643057485 -12.611075404104936 -1 2 0
8 3 -17.043744890372803 -12.63456047766462 -10.626885460860603 -1 1 0
21 4 -18.28815261271679 -9.849920469964975 -9.945282952152422 1 1 -1
15 3 -18.169854325147323 -8.301635366004907 -12.686511573021063 2 -1 -1
1374 3 -17.1757279636195 -10.58273482577727 -12.229905731936997 0 1 1
839 4 -14.965124031965376 -9.513609516778628 -13.277837164157106 0 1 2
22 3 -16.235802992399936 -8.414498840249358 -11.063118362200886 -2 -1 0
767 4 -15.205593197608739 -10.773032137258532 -10.094923218728205 0 1 -2
831 3 -18.188317604673482 -12.478438576347948 -8.54152048630445 -1 0 0
834 4 -15.808841233720157 -7.979936792365928 -8.42189632943194 -2 1 -1
540 4 -12.47760648786363 -10.735249683858491 -11.686265714666025 -1 3 0
641 4 -11.071973583598641 -11.272744399962132 -8.945165334760816 2 2 -2
384 4 -13.417373877792269 -7.8918500586528895 -10.839714069740118 -2 2 -1
746 3 -10.05340916370035 -11.087570815076472 -13.408103935679453 -1 0 -1
393 3 -12.358892808634273 -7.814343474176849 -13.278677042799846 -1 0 -1
829 3 -11.112168113217464 -8.63707554418036 -9.766241997967613 -2 0 1
539 3 -13.194717859534077 -9.500174311085255 -8.659568276919055 1 2 1
828 3 -10.423906998694337 -9.062163416131359 -12.050310409597536 2 4 -1
253 3 -13.200342817234272 -3.313029406383674 -19.900173955781952 -2 1 1
121 4 -12.41842176860402 -0.8315916246971699 -20.335306043384826 -3 2 1
274 3 -9.709351939220598 -0.24459411134993939 -21.54019815876292 -1 2 3
1186 4 -10.22189621392881 -2.850665055385916 -20.588935658005205 0 0 0
472 3 -11.581972774019132 -5.189162439810749 -20.589669384437972 -1 0 1
464 4 -8.87728141005509 -5.403855035676887 -19.63683462596761 0 1 -1
1038 3 -18.59632046991601 -0.7691473735277823 -14.958235412962493 0 0 1
1 3 -17.048963063879373 -4.073780629420349 -16.5916398417807 2 1 0
388 4 -16.834444747898996 -1.1584280566925693 -16.95536127960917 1 1 2
19 3 -14.549800842622215 -0.9048461501053698 -18.740659240514347 -1 1 0
473 4 -14.782990517162554 -3.3975077221380645 -17.681135697918023 0 1 -2
7 4 -15.500474850978613 -6.429394158738652 -16.75444661286891 -2 1 1
1293 3 -14.509930893634618 -0.11000301739958725 -16.10256027467409 -3 -1 0
1125 3 -15.454630550170684 -2.4114574130589785 -15.137708150527914 -2 0 2
5 3 -17.782558122941616 -6.049617544129735 -15.074172031183743 -1 2 0
480 3 -15.630981350891728 -4.719417851283106 -14.628072702455993 -2 3 0
972 4 -17.86895003431496 -3.389103353505434 -14.041237244446766 -1 2 3
482 3 -13.772348991800422 -5.799852680914514 -18.966097718858453 0 0 2
1188 4 -13.239975610011657 -4.363623006621655 -15.33387329674543 1 3 -1
466 4 -12.298651598531505 -1.646931665526888 -17.26456261885531 0 2 2
484 4 -11.719693570007527 -4.537706606481346 -18.03297836841783 0 -1 1
382 4 -9.133967004032495 -2.9108872978572613 -17.826973512408625 -1 1 1
294 4 -9.513461696805269 -0.3601879268075395 -15.890789486690537 1 1 -1
398 4 -9.441440096616367 -5.7881779774933255 -16.477962738269227 -2 2 1
127 4 -10.508560738583936 -3.203423867855166 -15.134054598046706 0 0 0
474 4 -13.271367315779646 -1.4867830165430835 -14.078931914315502 1 1 -1
391 3 -11.11995435843022 -5.594658843000309 -14.040635096685621 -2 2 2
24 3 -21.686510952225976 -1.7424244507762483 -10.914209783203308 -3 0 1
1353 4 -20.247259162559946 -4.19262780902884 -10.852088335610667 -1 2 0
1041 4 -19.428284291472686 -1.3507764264796311 -12.359476117393763 1 1 0
1368 3 -19.809047925428164 -0.9121475840945148 -9.674097457839038 -1 0 0
1363 3 -21.040858664578018 -6.384876287652519 -9.161805095266661 3 1 1
1666 3 -22.071178261491355 -0.08200130479142625 -8.977821307526368 1 2 0
1629 4 -21.65647248819608 -3.063289554272849 -8.41030339306265 1 2 2
18 3 -18.994944813554174 -5.736445809810532 -12.770353916079793 -1 -2 -1
1361 4 -18.296559190555065 -6.456650936921938 -10.122327683067633 -1 2 -1
397 4 -16.41583302666945 -6.246710325679319 -12.667305879807065 0 2 -1
386 4 -15.157345942476201 -2.8397198134026183 -12.110907781189786 -1 0 1
385 3 -17.561812263241634 -3.945645578566959 -11.311358674436878 -2 -2 1
1269 3 -17.372719294899902 -1.4304903666141784 -10.690242764701651 -1 1 0
966 4 -16.47034080175236 -0.4290247076252398 -13.506023767256094 -3 2 -1
1371 4 -15.148833806304475 -5.410852957152037 -9.98052509427421 -1 0 1
1346 3 -15.907656815749037 -3.031058500272831 -9.34233253482225 0 0 1
1787 4 -18.38742157906037 -2.807130113559991 -8.625185602773813 0 2 0
1199 3 -17.96124476534944 0.04369718702660617 -8.632537962342747 0 1 2
16 3 -12.28019194493984 -4.9999058158371055 -9.935689904822604 -2 1 2
1284 4 -10.323840864823515 -0.8939301221642467 -9.97186133087127 -1 1 0
1364 4 -12.946856108624248 -2.5381767734295804 -9.393183203978685 -2 -1 1
478 4 -10.519811601569028 -0.46295295803953146 -13.112423063056537 0 2 0
433 3 -10.234706889420071 -6.404471441481103 -8.654896659478378 0 1 -2
379 4 -10.435202537147914 -6.46080426102316 -11.368002514427909 0 3 0
468 4 -11.280442734478985 -3.3159772780475376 -12.075259437802089 0 2 -1
1285 3 -12.867485125427395 -0.9313915580283165 -11.498287983894544 -3 4 -1
1291 4 -9.780080743396612 -3.8538120196912344 -9.20822863821704 -1 0 0
378 4 -13.379203506018179 -5.314221381896456 -12.522346995173498 -3 0 0
917 3 -14.154323331905287 -19.944925765636388 -1.0086614071366515 0 3 0
640 4 -13.097581897418555 -20.578620494576104 -3.2598961071962727 -2 3 -1
531 3 -11.844175703482426 -20.920630156065826 -5.535950534761339 -3 1 0
543 3 -9.375490481577039 -20.77198077471715 -5.890475574755201 0 4 3
918 4 -9.847829113803249 -21.4360096418583 -3.017092427778457 0 0 0
851 3 -12.060124019821407 -21.559520177414157 -0.9087464191462283 0 2 0
926 4 -10.973885532400873 -19.28884990498318 -7.507290902729265 -2 4 0
554 3 -9.49375123013224 -21.607886850612033 -0.38452818075007417 0 -1 2
929 3 -15.444232537018191 -19.117020469329994 -3.278145221146949 0 1 -2
1696 3 -18.630538790518532 -14.99251858375844 -3.808404758751574 -3 1 0
744 3 -17.721142972504367 -16.10472763793976 -5.933363307380565 1 5 -2
1810 4 -15.306992219666467 -16.656891334687426 -7.51847409705476 -1 1 1
916 4 -15.926395529711431 -16.55849913581029 -3.9878621794965827 0 -1 1
1653 3 -17.343974691455884 -14.901443932025886 -8.027757505667521 2 1 -2
763 3 -15.720556483504595 -14.613878417906996 -5.956100002450222 -1 1 -1
1441 3 -17.29771913282243 -15.62893792767031 -1.6259555591305181 0 0 0
910 4 -14.61347861063377 -15.034361776025372 -0.9697004651015776 0 0 -2
900 4 -15.865346837949897 -17.89452806228613 -0.734415377268479 0 2 0
11 4 -13.73230403863829 -18.654208121045546 -5.638148426901811 0 2 1
1795 4 -13.444896474291724 -14.35269773977609 -7.338413991061906 -3 1 0
876 4 -13.437737232232266 -17.44078456114209 -2.587489025876663 -2 -1 0
494 3 -13.046300599481116 -16.172359432287244 -5.24385118261183 -1 1 0
866 3 -12.230091163800148 -16.773635863025437 -7.538587073328761 -4 0 0
923 4 -10.873623724391505 -18.723294826657273 -4.260626493142781 2 0 1
759 4 -10.16606789160979 -16.30229337195661 -5.762892003848974 -2 2 1
14 3 -11.40419349926216 -15.936736859115701 -3.162285964357666 -1 2 -1
637 3 -9.364222388542792 -14.664192749191217 -3.4142177753547713 2 3 -3
774 3 -9.28435468599294 -17.229842559466192 -2.47099203338925 -2 0 2
922 3 -9.015909608452764 -15.053535471673538 -1.118774855879311 1 2 2
905 3 -11.462291682806269 -14.183410183135939 -5.01929980224975 -2 1 2
496 4 -11.028496311434239 -19.037318806566358 -1.1515701608324895 1 1 1
924 4 -13.876281734560871 -14.026241413987547 -3.855945755007978 0 3 2
778 4 -11.353503137696075 -15.989304811001336 -0.32859840448848093 -1 2 2
911 4 -19.87237509376036 -10.759492744119866 -7.102754598910965 -1 0 1
29 4 -19.893260842107033 -12.259677773934836 -3.8137303691362825 0 1 1
1642 3 -21.369937987053287 -10.093866607309732 -4.9276821240646 -2 2 3
1673 4 -20.64835056343376 -9.276867498738987 -2.4511081654194102 -1 0 2
1504 3 -20.67136027378462 -11.791691499783058 -1.2249029219994572 -3 3 -1
913 3 -21.675130946341373 -8.58547861446548 -6.837522271633106 -2 -2 -2
894 3 -19.053486204705695 -13.701756270589064 -1.665586679832992 -2 0 -1
1488 3 -18.67067287140641 -10.164911662036422 -4.716756754753176 -3 1 1
904 4 -17.886469307734227 -13.215435549490422 -5.874714285314067 -1 0 0
921 4 -16.785915728354023 -10.61623650365643 -7.120467467920334 0 2 1
1813 3 -14.938537242306333 -12.220408841937644 -5.7132860279230755 -1 1 0
1698 4 -16.160555818435657 -10.561969595848128 -3.9240951985902863 -2 1 0
1727 4 -16.675075339774878 -13.406824572554772 -3.1329696719606472 -2 0 1
1812 4 -17.987247188176905 -11.029513662139944 -1.5949118611616826 0 2 1
915 3 -15.004885751908459 -12.257106416007737 -1.3985892415963834 -1 2 -1
861 4 -15.129511434579598 -9.525209486443861 -0.8120622459330383 0 1 1
1637 3 -17.026241508713287 -13.406379372946216 -0.1044982455138625 -3 0 1
920 4 -10.426970199459934 -13.7788352870891 -7.547319315527431 -3 1 1
862 3 -12.935576521844192 -11.296332097977523 -0.35665707483676556 -1 0 -2
1464 4 -13.997955166063171 -9.27855552237911 -5.895290629764947 -1 0 1
495 4 -11.774233143246818 -13.458480427193487 -1.9742380988618473 0 3 1
1809 4 -13.251864275261191 -10.889443500573972 -3.1047084192152106 -2 1 1
542 4 -12.188095391032295 -11.75051581218387 -5.862098633305886 0 0 0
1814 3 -13.820503339873266 -11.648035660029665 -7.909380470592755 -3 1 1
863 3 -9.105929241214357 -12.68597166745959 -1.8016265997910772 -1 2 0
928 3 -10.485131415258595 -12.152386649698546 -3.8776804304012074 0 0 -1
931 4 -10.68201941041 -10.241378005942162 -1.5156523522183278 -2 2 -2
390 3 -11.106119861491566 -9.476761495426267 -4.306863040197499 -2 2 1
461 4 -10.999263377764297 -8.924456505599782 -7.033626759277169 -1 1 1
867 3 -9.594428194446847 -11.089377764510163 -6.057060134276125 -1 1 1
1692 3 -22.82965038527566 -3.747698682643844 -5.914037116995189 -1 0 1
1701 4 -21.411507669299414 -6.011592004591587 -6.29041853860631 -1 1 -1
1643 3 -19.538157999299553 -5.022315602708805 -7.920646902447777 1 1 0
23 4 -20.095216362820796 -3.258638422314746 -5.792961462571321 1 0 -1
1638 3 -19.88149035306989 -8.100267249795865 -5.032195534287762 -2 1 1
1675 4 -22.669208014638755 -5.188971029475068 -3.3272869777232557 0 2 0
1661 3 -20.257381766576728 -6.127670192286657 -3.69923183412027 0 1 -1
28 3 -22.205683403072992 -7.731775646250913 -4.152843322824363 -1 1 -1
1649 4 -20.359176812952555 -3.5208426103747907 -2.6017998529142474 -1 1 -1
27 3 -23.005680802487152 -1.3910354182012956 -6.939067143816385 -2 -1 3
1691 4 -22.472964959921974 -1.649374240437981 -4.303332082882726 -1 2 0
1721 3 -22.69876543194103 -2.595264788081302 -1.7056978290804248 1 1 0
1715 3 -22.928449385102017 -7.394434278191404 -1.7297420576930589 0 1 -2
1668 4 -19.88727094938389 -0.9488171396491457 -0.901973791978519 0 2 1
1672 4 -20.46654297086206 -6.6148189753560604 -1.0518199513142734 -2 1 4
1667 4 -20.42474621217527 -0.24334001589517998 -6.833003325743121 1 0 0
1699 3 -23.07270469553902 -4.927344312083722 -0.6687995387215034 -1 -1 -1
1680 4 -22.637155842924802 0.04595791464035071 -1.5275712546607467 1 1 2
1709 4 -19.51666591648636 -0.6280528987084574 -3.839774514309324 -2 2 3
12 4 -18.891346759431023 -7.826149387441185 -7.465958358543969 0 1 0
26 4 -18.16128828520845 -5.633377866071874 -5.419978735290433 -3 -1 -1
1358 4 -15.722989735794291 -1.0266385927563917 -7.768848275399838 -1 1 0
9 3 -16.96038870639837 -5.351879139824171 -7.978547993711072 1 1 0
1805 3 -16.287840131703053 -5.668249734351224 -3.3851392132145803 -3 1 2
1687 3 -16.965998382607708 -8.31151815319612 -5.488629683218956 -1 0 0
1636 3 -16.81149136294619 -3.4759790040569642 -6.549738376927274 0 -1 2
1290 4 -14.233856565938197 -3.980142796260886 -7.207323733652045 1 0 -1
1783 4 -15.225997035132906 -6.353904710195518 -5.8168255448514214 -1 2 0
840 3 -15.130846077892635 -3.816706296466169 -4.642492540075189 -2 0 1
25 4 -17.61397981240532 -3.0065359556641567 -3.933607893167269 0 0 0
1693 4 -14.793784213420219 -7.744508056489361 -3.1216147780803913 0 -1 0
1710 3 -15.733479264426988 -1.517859651855479 -5.195349469476874 -1 1 2
892 4 -17.944626772103362 -7.902643737823225 -2.9849095355908037 -1 1 0
1348 3 -18.007619549038232 -1.2300789879723406 -6.298201546051442 -1 1 0
1808 3 -18.287587531335387 -5.087517754386373 -2.3096189006062624 1 1 4
1478 3 -16.22470161759952 -1.1481626674648695 -2.4875815677972324 1 0 2
1606 4 -15.459195672049264 -3.6935792449622378 -1.6442930150860722 -1 2 -1
1714 3 -17.93113330274823 -2.6568677021197074 -1.1690299052736637 -2 2 1
1603 3 -16.34789601361172 -6.501056727647047 -0.9179383676489266 0 3 1
1550 4 -14.149812900980875 -0.755182776586056 -0.4846511974429967 1 3 2
1614 3 -17.939133326132772 -8.313883277700763 -0.38645390464925805 1 1 3
1465 3 -12.399941792920478 -8.306973193767847 -2.188709845197038 0 2 -1
838 3 -9.927081181840913 -6.370132634169722 -6.256657339402617 3 2 1
844 4 -10.08632666288354 -4.428234257577603 -4.143279093662066 2 1 0
1558 3 -11.639158036377438 -5.963370310906598 -2.2845852198626866 -3 2 2
1534 4 -13.636880468642223 -6.273950215485424 -0.39810696005595986 0 1 0
1811 4 -12.862258158901604 -6.707966795463319 -7.999518234503818 0 1 1
1803 3 -10.949409531474322 -1.7236493849343797 -4.132881745205308 0 1 0
883 3 -9.597670078550342 -4.522802846009298 -1.387335619424188 -2 2 -2
847 4 -12.203992823012126 -6.79487061469461 -4.926470761103958 -1 -1 -1
1460 4 -10.761887596368764 -1.8051493297865346 -6.86736973998806 0 -1 0
1467 4 -9.460662473949194 -7.510292802126907 -3.268352479689909 -2 1 3
835 3 -12.599863276776993 -3.628943311898863 -4.95842666899747 0 0 1
1594 4 -9.846619660546626 -1.5285158053184151 -1.5769534078608591 -1 1 0
1283 3 -11.503631783613999 -4.516825939386377 -7.071922573563743 -1 1 -1
1282 3 -13.370010108484417 -1.472191426050358 -6.287853043936336 -2 1 -2
1618 4 -12.157329007341522 -3.3839511946886636 -1.8073297140165092 -3 2 -1
1800 4 -13.623436118659065 -1.4681753666545687 -3.6332093878935554 -3 1 1
914 3 -13.664675621242276 -5.107153683864778 -3.308770982931139 1 0 1
230 3 -0.7029369202774169 -10.180146231395685 -22.464946495665004 0 0 0
198 4 -3.161125028033543 -10.655924184526198 -20.84076068565706 -2 1 -2
242 4 -0.2706573912834933 -11.927267636938943 -20.422634577030323 -1 2 1
396 4 -6.570826024109334 -9.864099145407854 -20.13032364909282 2 2 0
365 3 -0.8233467734680967 -15.846762016538657 -17.50648396826612 0 1 0
745 3 -3.3370076017429064 -15.75263617290688 -16.852351280604925 -1 0 2
833 4 -6.0040193387762795 -16.25391851027404 -16.617057298868275 0 -1 1
361 4 -1.6529665629627879 -14.112934253649208 -15.617826744190344 0 1 2
823 3 -4.0282688044007235 -17.53704308872816 -15.271442086652002 -1 2 2
381 4 -8.368200946897169 -14.395018372092023 -17.666064672625293 -2 0 0
355 4 -1.1535635673151245 -17.021759217770082 -15.12408592660281 0 0 0
380 3 -4.298042370645498 -14.194089257240444 -15.140681405509348 1 1 0
509 4 -8.681221586707029 -16.272967967013365 -15.10213334386382 -3 -1 -1
360 4 -5.3159897166042 -13.451730033413483 -17.48538947232486 -2 -1 0
370 4 -2.4231213697211618 -13.193306441242115 -18.57740347413266 -1 2 -1
187 3 -0.3090539958496265 -12.034314102945071 -16.81977768533399 -2 1 1
125 3 -5.223495812677115 -12.30028114356556 -19.890433195613955 -1 -1 0
314 4 -4.414625389822387 -10.480676543961307 -18.076688995674374 0 1 1
252 4 -1.394316319498879 -9.972924295829571 -18.055517456294368 -1 2 0
358 3 -6.013010078024839 -8.874889602252631 -16.259587024041387 -1 3 -2
260 3 -2.9270937595888724 -11.962276198958621 -16.280127148067585 -2 2 -4
268 3 -3.5965390642805195 -8.863806985506098 -16.00647562711388 -2 2 0
344 4 -7.456419959814971 -11.207769923875317 -17.227179106615722 -1 3 0
2 3 -7.774595492733791 -12.258449646469762 -19.46125525656543 -1 1 2
366 3 -6.751510284481331 -13.715322630483902 -15.07022739202115 -1 2 3
341 3 -3.8318269393309854 -20.561563746332695 -11.652243765023895 -1 1 4
712 3 -1.8059989488445989 -20.608752410505975 -10.443514101562313 2 2 2
504 4 -6.549256168950938 -20.16296048338913 -10.47415053751671 -3 1 2
683 4 -1.9230487237070448 -18.519947408315062 -12.317466931997227 -1 2 1
535 3 -6.673190845248503 -18.27677592335165 -15.011526040000964 -2 1 -1
524 4 -4.991919185342132 -18.630119466377636 -12.984510221299157 -2 0 -2
254 3 -5.91207493117013 -16.091180719720573 -14.040388503069776 -1 3 3
825 4 -0.66849783854433 -14.660234556395888 -12.669706822033767 -3 3 0
718 4 -3.33319785633632 -15.980482487220499 -13.315919022555255 -2 1 1
508 3 -5.3377618561883065 -16.38779672196743 -11.54300259474005 -1 1 1
352 3 -0.3530029348863143 -16.805638060218552 -10.859557439266679 -2 2 0
830 4 -7.659459312161174 -14.997772813498791 -12.369003674368967 -1 -1 1
493 4 -7.913140331182398 -18.03505880734068 -12.60537333831169 -2 0 1
597 3 -2.731221512054304 -16.18940779772116 -10.571646891298386 1 1 0
33 3 -2.82811361626056 -13.838256433695578 -11.408746525863378 1 1 -1
832 4 -8.646994045926238 -10.719147028880188 -11.059308654116798 1 1 1
322 4 -1.6337855528373073 -10.229856229273524 -14.770514591630915 -1 3 -1
387 3 -5.232931760902667 -8.522656149286586 -13.89554706032149 1 1 2
546 4 -7.762545670876241 -9.995220775911543 -14.378853901040989 -2 1 0
324 4 -0.8035670005630019 -11.402244138126889 -11.692343591635506 -1 2 2
725 3 -6.533772292200475 -12.517242892389655 -10.484972929982202 1 2 -1
353 3 -2.69479432118781 -12.510324103810943 -13.541030961732602 -3 2 1
330 4 -3.7243881266419816 -11.482534867670845 -10.408544652487663 -2 3 1
323 3 -3.3149745741392085 -9.979003246657681 -12.728404876849355 -1 3 1
317 3 -7.626468570254652 -12.346040328312455 -12.988679956121207 2 0 0
349 3 -0.07302702182843898 -12.263599727246605 -14.272670259196566 0 2 -2
374 4 -5.177910677255837 -13.367159163386306 -12.691874329711139 -3 1 1
326 3 -5.88078419343262 -10.583734900473074 -12.313578558121579 -1 1 1
325 3 -0.81036289036712 -8.564332087840393 -12.609765319414393 3 2 2
340 4 -4.985693031061971 -11.223441385264483 -14.86469562093081 -1 2 -1
316 4 -1.9007373018253577 -8.757063010623567 -10.108300055075718 -1 1 -1
132 3 -2.6236207715114905 -2.3344049575544674 -23.58180209317093 -2 0 -2
483 3 -4.484216932552261 -0.739171465425203 -23.098449620737938 -1 0 1
407 4 -2.448928070398767 -0.9636259247121471 -21.199081787749826 -1 1 0
231 4 -4.847621127470747 -3.218182649298899 -22.045279327878468 1 3 -1
479 3 -2.4797931661020214 -4.770726706949585 -23.324756286652587 -1 0 3
261 3 -1.5125846564963044 -3.449012026106349 -21.47674838314042 -2 3 0
135 3 -4.478528593029024 -6.147679158702926 -22.884337376352644 -2 -1 -1
251 4 -0.13589763504327282 -5.782072375051532 -22.366147085274243 1 1 0
465 4 -6.996565117625314 -0.15208340017621838 -22.07564675277385 0 1 2
463 4 -3.100901967198627 -5.572070893897243 -20.630477671974063 -1 2 2
327 4 -6.204075999089996 -6.0624538227350335 -20.827928975679914 0 0 -1
291 3 -7.5879480626897795 -3.463146111293248 -21.389891226510457 -1 1 0
235 4 -2.187518563713191 -7.8906519011522835 -22.564873167766027 1 1 1
20 3 -8.52096821384226 -7.960030466290713 -20.47073598530784 -4 0 2
232 3 -4.582753722734317 -8.164872479971764 -21.29994356187447 -1 3 -1
259 4 -0.43765612008579174 -5.6125319976677694 -19.352015804054346 -1 1 0
228 4 -5.036060589624614 -0.4204382085614571 -19.75791334155602 0 3 0
270 3 -3.441332401854644 -2.93375837190642 -19.63942003531374 -2 2 -1
406 3 -2.7275919177727133 -1.0528439523219233 -18.139091700910313 0 0 -2
220 3 -0.8493979355459479 -2.4756903113608844 -19.371367290817776 -3 1 2
255 3 -0.3931033384122753 -1.505906785068186 -16.967584299101635 -1 0 -1
428 3 -4.686886825227324 -2.310997152528949 -17.10164668616031 0 1 1
302 4 -2.115507557275877 -3.837342603617229 -17.339049764571957 -1 -1 1
427 3 -4.400253233132535 -4.908439884569872 -18.18626742722219 0 0 0
84 4 -6.259306741440251 -3.35556458987626 -19.150019024886234 -1 0 2
413 4 -7.027610653135881 -0.8256842227056558 -17.398308211365958 -1 3 -1
128 3 -6.841204227890477 -5.642053602076916 -17.726082716405745 -1 1 2
241 4 -2.05316664289658 -6.935891165115341 -17.09000965466982 -2 2 1
303 4 -6.9205030933622975 -3.6683642522339146 -15.782721918838082 -1 2 1
237 4 -4.864046849146192 -7.582335709231492 -18.53201555277976 1 1 -2
267 4 -4.757042616279614 -6.005728385184714 -15.687781125854306 0 2 1
423 3 -7.940960333611968 -1.4344542709793333 -19.982400524987977 -1 0 0
284 4 -7.936190843375021 -8.114909844179005 -17.90585408356847 0 1 0
247 4 -2.6114337750326824 -1.6473730938862137 -15.180150308815795 -1 1 1
289 3 -2.500321419914744 -8.169605948385918 -19.775012173951538 -1 1 2
233 3 -0.4151644117990704 -7.861267163694675 -15.098324298737193 0 3 1
343 3 -7.250749562699033 -6.907035977646283 -15.148641002398358 -2 1 2
331 4 -3.4689647978783147 -3.4407536669276824 -10.028648785361659 -2 1 -2
467 3 -8.689826652255569 -3.036638404364825 -11.535327280107438 1 0 1
258 3 -3.3872857179870226 -4.582978451696051 -12.729513106307795 3 3 1
489 4 -7.732469470508676 -0.5399794902491012 -11.599291247678899 1 1 0
415 4 -8.468259136754938 -5.0220301837946 -13.409386070233714 -2 3 0
372 3 -5.689519124750424 -5.972078071629674 -13.204656271202266 -1 3 2
431 3 -8.33505782659605 -2.036322930091216 -14.014805042514478 -3 2 2
457 4 -7.534615053283581 -5.442429649994366 -10.389347805855099 -1 1 0
389 4 -4.6691445414482 -8.047728120848067 -11.277619493961533 0 -2 0
460 4 -5.945839515196268 -0.838193758426952 -14.438371985544254 -2 2 3
263 3 -2.064373421515513 -4.7844898219276875 -14.819459469005286 -2 2 -1
310 4 -1.7246036968457037 -5.849637677146504 -11.039481434449995 -1 2 1
459 4 -5.987645503990795 -3.3335517468452687 -12.457526190908087 -1 2 0
245 3 -4.97294547891416 -5.391656070846059 -10.819483623798192 -1 2 -1
404 4 -3.680797073987731 -1.3570211726080363 -12.391179673535358 0 2 2
342 4 -7.540908131268484 -7.9453872337668106 -12.137276645721858 -1 5 1
319 4 -1.0458194423542984 -2.923804499739841 -12.417691397342939 -1 1 -2
403 3 -4.39061334210724 -3.502482761579799 -14.769665453403077 -1 1 2
420 4 -2.747138120729831 -7.2092589490443615 -13.703146517445115 0 1 0
785 4 -1.1313496588261531 -18.563208891197622 -8.980606881229246 1 1 1
779 3 -4.13265216982359 -20.90635265820264 -9.247250438862675 -2 0 0
777 3 -1.968585091714676 -21.360142023668583 -8.08918086181441 -2 1 1
731 3 -5.829436249420347 -19.467387405262343 -7.940310617210465 1 -1 3
704 4 -4.12094376276888 -18.28591523663591 -9.895381431961157 1 -2 2
614 4 -3.286029256672666 -19.107858379220687 -6.9036365489685725 2 0 1
758 3 -0.2841971384526357 -22.892978882271564 -7.002738318389756 -1 0 0
526 3 -4.2954035796255345 -21.593018101627635 -6.965270109392933 -1 2 -1
693 4 -0.4975258001021299 -20.353183704973816 -6.027069042955256 -1 2 1
499 4 -6.794102133164746 -21.38040843309668 -6.163005414359218 -1 1 0
498 4 -8.088447083706514 -18.3685471788839 -6.977275459722044 -1 2 1
541 3 -5.771067955658047 -18.660172923926947 -5.414631763661703 0 1 2
348 3 -8.299210796954213 -20.608315983689014 -8.351726868215012 -2 0 0
639 4 -2.3814028065471224 -22.67900889039956 -5.320654250814501 -2 1 1
753 3 -5.046164189748506 -23.201689175203516 -5.089463317102448 -1 2 -2
347 4 -1.079514467399373 -14.297108841963365 -9.519588673975512 0 -1 2
796 4 -4.899860120618048 -14.632962411637664 -9.613236754062397 -1 3 -1
810 3 -2.6114565716358182 -16.23030010000634 -7.933239376881857 0 0 4
760 3 -6.390956855679908 -13.629853844937516 -7.5166997417816965 1 1 0
532 4 -8.29600552024299 -14.348124599294962 -9.553588077109907 -2 1 0
757 4 -3.3207117172420944 -13.553844554680557 -7.0934468614949315 -1 4 0
357 4 -0.15417380867874156 -13.92269507243006 -6.6287249815105636 0 1 1
769 4 -5.251017530754552 -16.525439072163064 -7.090438960089128 0 6 2
501 4 -7.208581784684813 -17.179729843791833 -9.744373021429764 -3 2 -2
812 4 -0.9982757613872505 -16.994394330820803 -5.787735019059426 0 1 0
703 3 -7.877813020015883 -15.618615160350393 -7.176525384322547 0 0 2
751 3 -3.2984689785923234 -15.604606092661895 -5.508278291742094 -1 1 1
506 4 -8.268590700077825 -13.43292181752185 -5.447725075875746 -1 2 1
807 3 -5.532630418492991 -14.28110574341223 -5.157489463588073 -2 0 1
707 3 -1.8185730777148121 -24.132250916632547 -3.1008909348018245 0 1 2
538 3 -6.890108149456604 -21.97377232795093 -3.3796024740165365 -2 4 0
500 4 -4.417362902345062 -20.613497796035773 -4.248148292974631 0 3 -1
805 3 -1.611896744713832 -19.321835057827546 -3.9176905547423604 0 2 0
711 4 -1.731521841217567 -21.603766263607444 -2.479856659666846 -2 2 1
764 4 -4.45099200011528 -23.138017440592364 -2.4042718138723163 -1 0 0
577 4 -0.2067188127500326 -19.05811018023444 -1.4786791026927384 0 0 1
802 4 -3.2244345651161597 -18.822553125972775 -1.6975161162005414 0 2 1
798 3 -5.594535914122945 -20.48713462174204 -1.7782144138935232 -2 4 0
536 4 -7.845931486545463 -19.493520246033217 -3.915044868430929 1 0 1
880 3 -5.615424532315172 -18.218966588008005 -2.7926719398961373 0 3 2
768 4 -7.877444610417498 -19.461506024785816 -0.9446725980541402 0 0 1
497 4 -7.032797337536416 -22.548073573827352 -0.5763471754280585 -3 2 0
717 3 -2.4383176363060737 -23.50452190873549 -0.5356266919369186 0 1 1
762 3 -3.4250408246657615 -16.464482941993523 -0.40660105754939213 0 3 1
795 3 -5.0923781026266575 -14.427642199877395 -0.4105612423088884 -2 0 2
752 4 -0.3664563038958346 -12.278905419516247 -2.868524910024445 -1 -1 0
784 4 -6.825175750999842 -16.632866958805153 -1.052167059358448 0 0 0
776 4 -4.394794441086175 -15.648294724191738 -2.979236869043732 0 2 2
803 4 -6.645575303510724 -13.591512047645637 -2.596227182485438 -2 2 1
809 3 -4.326560463352024 -12.137576726573606 -0.9633057727631323 1 1 0
761 4 -3.584365778868228 -12.513380651719137 -3.842439200414737 -1 1 0
700 4 -2.3043532182544015 -13.87768478715242 -1.2361765756401633 -1 3 1
791 3 -1.6566739766883622 -14.2664835654107 -4.325204215578602 -2 1 2
749 3 -3.5825603885538984 -17.768577365764806 -4.450662749431509 -2 2 -1
799 4 -1.513979733859803 -16.455137791498586 -2.683343240743866 -1 0 2
788 4 -7.312629843539622 -16.443249061988624 -4.34268593982797 -1 3 -1
329 3 -3.7024538380423904 -6.738470872478537 -9.083285915599259 0 1 1
747 3 -4.139379368811115 -9.245079753659837 -8.66513754226555 -3 1 -1
726 4 -1.9056297710688253 -7.599841809443948 -7.080905825055503 0 1 1
490 3 -6.060115043852951 -7.349551924533862 -9.128561159386162 0 5 1
312 3 -6.327633761647047 -9.545034028954023 -7.661465324884151 1 2 -1
806 4 -3.2427522292134126 -10.301883399714772 -6.371465210048393 -3 1 -1
320 4 -5.133909062868992 -7.570888576069881 -6.397545811905532 0 3 0
487 3 -7.819351399094094 -6.178812122422312 -7.6761222478215005 -2 2 0
321 3 -5.202838340862629 -11.668305526355791 -8.272631554733701 0 1 1
756 4 -1.0950043920829147 -11.384319769357313 -8.39301103898065 -2 1 0
836 4 -8.239879803073617 -8.75832453860016 -5.943816001914168 0 2 1
328 4 -8.054365647407973 -11.507402106794004 -8.13438405077596 -1 -2 2
794 3 -1.204192977320426 -11.84852073744837 -5.465251965237871 1 0 2
816 4 -5.990162630324446 -11.28194255226932 -5.502120550621589 -1 0 2
315 4 -8.515219861690904 -8.413632732309875 -9.08012844778152 1 3 -1
505 3 -6.1826382664137345 -9.936923659556792 -10.020810876291046 2 1 0
332 3 -2.3634757775954003 -5.10143242209538 -8.128803849620368 0 3 0
481 4 -3.9979861604371325 -0.6324271465081434 -9.35155820257788 -1 1 0
54 3 -0.7187252170953335 -3.745754487415996 -9.278332957112239 -2 4 0
56 4 -0.18001297680733166 -1.4860791481913096 -7.593017036085133 0 2 3