LAMMPS data file via write_data, version 29 Oct 2020, timestep = 4760000

10091 atoms
4 atom types

-40.0 40.0 xlo xhi
-40.0 40.0 ylo yhi
-40.0 40.0 zlo zhi

Masses

1 63.546
2 91.224
3 63.546
4 91.224

Atoms # atomic

9289 3 -17.326939098011366 -15.627673911330357 -26.373447475320965 -1 1 0
9319 4 -14.559420878265659 -15.258241732538774 -26.594341667616078 -1 1 0
9223 3 -19.392720145370056 -11.59109173750949 -26.878497135598636 -2 -2 2
9280 3 -19.248763549016143 -14.041182097989637 -26.692034805179873 0 0 -2
9268 3 -21.453079752318484 -10.573797652138072 -25.824841722208426 0 0 -2
9128 3 -17.63328064708942 -10.130098347019928 -27.72041684784064 -2 4 -1
9269 4 -16.931961719773938 -12.867043833421471 -27.426174211871388 0 2 -1
8641 3 -15.995266565498932 -11.101492112938399 -29.32187781035592 0 3 -1
9739 4 -13.7432713179139 -12.552677086604364 -28.59528940999114 1 2 -1
4750 4 -15.081145123832009 -9.990678521953035 -26.895737652925188 -1 1 0
9270 3 -14.775816725432705 -12.61204245518098 -25.749652569712477 1 1 0
9691 4 -13.972763438357909 -9.445298855698685 -29.942995574305645 -2 0 -2
9545 3 -12.49766763140558 -20.975171682486174 -22.897508625807347 -1 0 -2
9560 3 -16.13701257583786 -20.437877336536538 -20.456539282641202 -1 1 -1
9585 4 -13.741037580648815 -21.879517747364243 -20.451711475546553 -2 0 0
9576 3 -19.282417068092446 -15.456981114544057 -24.561668608631106 -1 1 1
8986 4 -18.64058970688842 -15.658793395900213 -21.968546629573947 -2 -1 -1
9320 3 -20.065221557356956 -17.677161744418175 -21.010209261032152 -1 -1 -1
9276 4 -22.804857980392676 -16.397319790218884 -20.497725807596957 -1 2 -1
9544 4 -16.930626388112834 -18.04563540236306 -21.218082874494076 0 -1 1
9534 4 -16.346630801412093 -16.780224194370458 -24.084021917835006 -1 1 0
9558 4 -14.429069292797694 -19.225480585951118 -22.780605792899923 -2 2 -1
9324 3 -13.688290797057668 -17.153685408812464 -24.48987682974778 0 2 1
9304 3 -13.962877159066867 -16.66361628505251 -21.947617814424785 -2 0 0
9312 4 -15.925784458130414 -14.815022086808769 -21.664584495132715 -2 2 -2
9082 3 -14.410564171083214 -14.508996243087438 -24.01845035997002 0 0 -2
9323 3 -24.453822814174078 -11.103512998300696 -21.656684737596898 -2 0 0
9302 4 -23.669956781480224 -13.453886450350012 -20.492050925627108 -1 2 2
9124 4 -23.106145766823516 -11.331456814548678 -23.956379841098848 0 1 -2
9272 4 -21.271844585083674 -14.31821623596923 -22.315617243556797 -1 2 1
9267 4 -20.26149145269145 -12.827404973507177 -24.62231083693407 0 2 0
9277 4 -18.455400884082646 -12.329940161324101 -21.91653310254773 -1 0 1
9281 3 -21.70830787146751 -11.63549076277895 -21.800265924635497 0 2 -2
9271 4 -20.038544250023843 -10.056606630913201 -23.404647384437755 -2 2 1
9263 3 -17.800514904528665 -9.749668383305277 -20.846065779496783 -1 0 -2
9094 4 -17.537851890096686 -10.76424942675228 -24.961762582104818 1 1 0
9256 4 -17.204254555836936 -13.849892822600458 -24.539035918629253 -2 2 -3
9286 4 -15.121565283248122 -11.916024749736362 -23.18783598588521 0 1 2
9248 3 -13.126918738034586 -10.849793641094656 -25.18401343783419 -2 0 0
9291 3 -12.389173750859628 -12.571706664402512 -23.606787538066666 -2 0 1
4702 4 -13.13203461243595 -13.846509281854315 -21.323686928487493 -1 2 3
4426 4 -12.821706959791067 -9.627725445437159 -22.684198742176623 -1 1 1
9182 3 -15.514032803178996 -9.655808031495045 -21.728439907500448 -5 3 0
8662 3 -13.407860321803872 -11.305215194163358 -20.453256745350675 1 2 -2
9068 3 -13.138181852695237 -28.02161492808618 -16.0640728649256 -2 3 -2
9583 4 -14.61388114862523 -25.6299491455685 -16.048478152330482 0 0 1
8977 3 -19.73121296448248 -20.630428656079168 -17.73794989243377 0 0 1
9561 3 -18.888870267143123 -23.213357483760806 -17.038435602220822 0 1 1
9580 3 -17.625219747806742 -21.531700104323527 -18.67333633773174 0 1 0
9538 3 -16.356258298594266 -23.398807886180833 -17.56750509556998 -2 -2 2
9051 3 -15.17522232946195 -21.352429712260886 -18.16327289385444 -1 1 -1
4685 3 -13.949915230390294 -23.59428232209759 -17.935142521960607 -1 1 0
8950 4 -12.572436270807428 -20.879690714687033 -17.61307011396886 -2 2 0
9598 4 -17.345001533638374 -21.251917775814327 -15.983317104576543 1 4 0
8988 3 -14.428810974856926 -19.884405562718428 -15.868455625809299 -1 1 0
8983 4 -24.025461547510186 -17.22160826027798 -17.435404583547722 1 2 1
8564 3 -24.864539941856314 -14.864719006130661 -18.507432106348396 0 1 1
9290 3 -26.11222456950481 -15.67379280332498 -16.419046036395127 -2 0 -1
9486 4 -20.918392161185974 -17.93756291435712 -18.55742177637824 -2 2 0
9258 3 -18.610476719626824 -19.44023633665663 -19.58140484561518 1 3 -1
9316 3 -18.38000221900774 -16.935739119838225 -19.172872276316273 -2 1 -1
9287 3 -20.381792545909384 -15.402675205515713 -19.799307062495046 -2 2 2
8985 3 -19.710026537209888 -15.790057347029064 -17.210485057076646 0 1 1
9496 3 -21.8641851511781 -19.582867917716193 -16.559709724695587 -2 -2 0
9533 4 -19.102118040181733 -18.537251911865933 -16.26227052389457 -2 0 -1
9025 4 -22.110920988892847 -14.769320060753078 -17.823188556686883 -1 -1 -2
9054 3 -17.26844269969755 -16.499012850952408 -17.076863302105327 -2 2 0
8992 4 -16.45252165728064 -19.0067015599612 -17.995465975354648 -1 2 0
9081 4 -15.429118658231623 -16.298417220526943 -19.126623002946697 0 -1 0
8963 4 -13.952156080336376 -18.860653535512636 -19.788855027655426 0 -1 1
9284 4 -12.26365111435494 -16.215302099879473 -19.649869022904635 -3 2 0
9026 4 -13.438967081594935 -17.483884246989977 -16.842382556839645 1 2 0
9314 3 -12.4164080633255 -14.803998833948588 -17.35215599403826 0 3 0
8996 4 -14.99427314133995 -14.859203986860452 -16.4208189031719 -2 2 -1
9181 3 -25.680769925776886 -11.98099499893303 -19.485283172378853 1 1 3
9252 3 -23.752847705951627 -12.579552200188221 -17.70693763775067 -1 3 0
9301 4 -26.352818798729583 -13.065249181573078 -16.907208482621122 0 3 0
9315 4 -26.06625410323846 -10.115004580352993 -17.51593179379142 1 0 -2
9307 3 -28.26730848970967 -11.037785127917994 -16.1355430604591 -1 -1 -1
9296 4 -23.223623805323548 -10.540342480260122 -19.277303027087157 0 2 2
8968 4 -20.67298152381265 -12.71985252274207 -19.565100445270037 0 2 1
8941 4 -17.84266243500851 -14.229250173221828 -19.01142290530082 0 2 2
9273 3 -18.221991256692792 -11.311725375221991 -18.85426846300041 1 3 2
8978 3 -19.53516210917635 -13.084373781833511 -17.13981992589648 -2 -1 -2
9327 4 -20.54593732693553 -10.395586736724779 -17.413513494365016 -2 -1 -3
9203 3 -20.194458990644534 -10.124446022366014 -20.306324331798496 -2 2 2
9275 3 -21.65275487251839 -12.560500024659614 -16.126535949168872 0 2 1
8989 4 -17.766223851821017 -14.21599709652287 -15.618319919713052 0 1 -1
8969 4 -17.598335150116764 -11.081985188101017 -16.153827325747187 -1 1 -2
9057 4 -15.889106844015583 -12.07032407553958 -20.245217872128592 -1 1 -1
9007 3 -16.00542761318424 -12.584766659743128 -17.58484412226189 1 4 1
9053 4 -13.142545696705014 -11.931704969768932 -17.55828885930166 -2 0 1
9008 3 -14.258887292064909 -13.968417557832925 -18.96053679575494 0 1 1
8772 3 -14.86940604439332 -10.21245555354707 -16.38449340200114 -2 2 -1
9035 4 -15.71271844326944 -9.607861749830729 -18.678742176822265 -2 0 1
9005 4 -19.048566897350366 -26.598178033125677 -11.674890337443577 -2 1 -1
9586 3 -21.008953679046062 -24.844764308864832 -12.10536731451859 -2 2 -1
9571 3 -17.227869950355384 -26.423139605490963 -13.922068400787207 -1 3 -3
9535 3 -16.97063446643056 -28.62655238236267 -12.44432932857109 -2 1 1
9564 4 -14.594241609482571 -27.980572831435637 -13.542423664295761 0 1 0
9553 3 -13.452511016401148 -26.123684026679978 -11.873831668392052 -2 3 2
9565 4 -12.282863965893695 -28.581940067981048 -11.35945034944874 -1 2 0
9503 4 -16.11459457793804 -26.604035850906808 -10.97062041067761 -1 1 -1
9611 3 -15.08655083700214 -29.019290658233487 -10.731555293039563 -3 0 2
9497 3 -25.14535879507011 -21.52098778593428 -11.335166790048062 2 0 0
9557 4 -23.06714209065639 -20.888560021000607 -13.291883177212618 -2 0 0
9555 3 -22.074308704095703 -23.400218599823734 -13.84323725177076 0 1 0
8993 4 -20.45048398308062 -21.641307954036527 -15.381847551958106 0 1 -3
9591 4 -19.45270257441457 -24.54917429744126 -14.50038398239346 -2 2 2
9003 4 -20.064895286285847 -22.304767486276667 -12.425774670578788 -1 4 0
9079 3 -17.91018029071301 -24.410194938891934 -12.368814580269378 0 0 1
8970 3 -20.939300621419736 -19.951100419848625 -11.65418185042192 2 1 2
9010 4 -22.857559434781706 -22.961317856351595 -11.00333608412662 -1 1 -1
9021 4 -18.51277262457846 -19.61265860934267 -13.360003843911633 1 2 1
9587 3 -16.9682217148325 -24.16298244453957 -15.43064031862281 1 0 1
9550 3 -17.267648548307637 -22.386934084971706 -13.591193344147905 -1 2 3
9612 4 -15.377922204339207 -24.663130471368774 -13.273782836760876 -1 2 0
9539 4 -14.520264616345425 -22.48919994203298 -15.398953016380334 1 2 1
9574 4 -12.541165073887743 -23.469906319396742 -12.782981329055774 -2 -1 0
8632 3 -15.1065683278926 -22.480635178839695 -11.894959048585717 -3 2 2
9554 4 -15.46668869682611 -20.189192003052266 -13.225752632849135 -1 0 -1
9052 4 -13.15150951317423 -20.657138235215296 -11.090334411166728 0 0 0
9592 4 -17.53921881823022 -21.561134807992758 -10.941018909016957 -2 0 0
9380 3 -27.533124021349206 -16.81891193001561 -13.042894256722768 -3 2 -2
9066 3 -23.7282895519789 -18.990828633443744 -14.922082402850767 -1 2 -1
9015 4 -25.024585567708197 -16.7680599659684 -14.123291385907345 0 0 -1
9069 4 -25.491146917682688 -18.89605480218784 -12.13533256675312 3 2 1
9375 3 -25.785751346153017 -15.451674817913709 -11.733224527744355 1 0 0
9347 3 -28.332940757845805 -14.732718639162933 -11.67056339756999 -1 0 0
9033 3 -22.85529167407523 -18.199128930981832 -12.575546604633184 -4 4 0
8871 4 -22.70871296242647 -15.332136450395936 -12.772616743959219 -2 2 -1
8966 4 -21.766856780760218 -17.039730199286524 -15.297231292588405 -1 4 0
9044 3 -21.071019739010172 -19.365758397513314 -14.105088342682883 -3 1 0
9032 3 -18.683388552393637 -16.50248018238479 -14.522065810114587 0 0 1
9039 4 -20.375910049770848 -17.214303396524627 -12.43655942968226 -1 -1 0
9317 3 -20.61329147850606 -14.631698061221764 -14.998304872344146 -2 2 0
9577 3 -17.686107216014875 -17.33278765060547 -12.174507746795749 -3 1 0
9073 4 -14.280082500539864 -14.775479672285083 -11.91497480083017 -2 4 2
9037 3 -16.583455033962977 -15.340357477855223 -13.340359691584787 0 2 0
9562 4 -16.170658731598213 -17.73438363763826 -14.960380100271248 0 0 2
9062 4 -13.008706241303143 -18.352312459582667 -13.689597094178499 -2 4 1
8954 3 -14.110250710801175 -16.036097157937288 -14.270823666289079 0 1 1
9070 3 -15.290414484294839 -17.339141465106437 -12.443575620062724 0 1 1
9055 3 -13.331053236948666 -17.59488167999542 -11.12220669514516 -1 4 1
9326 3 -30.215956098116756 -9.729686149544717 -12.313448765663312 -3 0 0
9409 4 -28.536284230154525 -11.913912158227348 -13.056821119838082 0 1 0
9002 4 -26.86559884844448 -14.268551975872805 -14.094694149296947 -2 1 -1
9245 3 -26.46254594072756 -11.347922905219711 -14.666481718223107 -1 1 0
9309 4 -23.85465231397575 -14.398665009207976 -15.474378300743398 -1 2 -2
8689 4 -23.936323263156904 -11.247040082211841 -15.185330238784715 -1 2 -2
9333 4 -24.6172667847222 -12.944901705474976 -12.65861048680135 -1 1 -2
9125 4 -25.849043458511417 -10.083770542027654 -12.290561628619953 0 2 1
9340 3 -28.453368393922506 -10.585870337752798 -10.764718026599715 -1 0 -2
9447 3 -21.92569473051584 -13.060358369852972 -11.125585932194667 -2 2 1
8892 3 -22.63462451737034 -10.940551915838501 -12.305392552388588 -3 0 2
8960 3 -21.757463141176657 -12.912866008550663 -13.589240372540218 -2 -1 0
8973 3 -19.364254956980606 -12.399752010691808 -14.570232600662113 -2 0 0
8995 4 -19.274141962261847 -14.491138661273123 -12.41698495962363 -2 1 -1
8900 4 -21.00515927545236 -10.317264474409367 -14.450826447667668 -1 1 0
9086 3 -18.00303868076938 -10.143612351738923 -13.646159833530175 0 1 -2
9461 4 -19.58948630438935 -11.41039132226358 -11.800460418044267 -1 0 0
8925 4 -16.487415263542456 -10.042511573367316 -11.197299954838082 1 0 -1
8952 4 -12.796609269918605 -10.00809443215972 -14.74453731424849 -1 -1 1
8819 3 -15.441692440773597 -10.082291869455355 -14.00643038433165 -1 1 -1
9016 3 -14.990384855711017 -12.348872484053693 -15.194125648198433 1 3 -1
8979 4 -12.648221054319805 -13.543808955953079 -14.52718425125941 0 2 -1
9071 4 -16.668469444003076 -12.628772047050672 -13.157117754337941 -1 1 1
9023 4 -13.71954584928149 -11.461676766984388 -12.242491619982186 0 3 0
9732 3 -13.461067643759323 -4.0907973618103295 -31.752859114693333 -4 3 2
4978 4 -13.315110519652048 -1.4473584346962323 -31.486891408461727 0 2 0
4357 4 -14.356590479722398 -6.346706463427369 -30.60807990783041 -1 -1 -1
9733 3 -16.250149994360953 -0.9003402163859451 -30.274174173105393 1 1 -2
9727 3 -21.42220808655556 -3.992411307224312 -26.884752415456756 1 2 1
9736 3 -17.822675153480727 -2.923553693508489 -30.17160372667079 0 1 0
9184 3 -19.534912327453892 -3.1304885183007927 -28.335265463554308 -3 0 0
9190 4 -18.315732313430832 -5.4730215322704 -27.532821041929616 -2 3 0
9708 3 -20.733517473993814 -1.4206411949095268 -26.937997965648318 -2 3 1
9305 4 -19.757923851897335 -8.741740215142773 -26.655230914259228 0 0 0
9705 4 -18.810959180494876 -0.5915174586310687 -29.226400889519905 -2 0 -1
9236 3 -18.412809873982518 -0.6810920958219246 -26.505306685706657 -2 2 -1
9091 3 -20.50784451109414 -6.077704615800361 -25.945424094697046 -3 -2 -2
9719 4 -19.27249600361758 -3.369717243357102 -25.569525782228588 -1 -2 1
8672 3 -22.985654990028134 -5.43730557785954 -25.32613466366079 -3 2 0
9735 3 -16.91736862106234 -5.2049589562084915 -29.88242958856138 0 1 1
9744 4 -16.592275232052295 -7.781425316420452 -28.8419054241108 0 2 0
9150 4 -16.81283184072439 -2.6683234358991745 -27.742673826449415 -2 3 2
8657 3 -15.199163502487135 -3.353333349836493 -30.10838973082131 1 0 1
9738 4 -15.102604107253738 -5.141197466734042 -27.940302213612444 0 -1 0
4711 3 -13.866673848969903 -7.657682433962585 -27.909402824999656 -1 3 -1
9161 4 -12.530327546317151 -3.8810358983769775 -29.256098729902995 0 3 0
9742 4 -14.301320371449794 -1.161483090223348 -28.56662673275287 -2 2 1
9233 4 -13.711036271817004 -2.919490018036103 -26.206465665813738 -1 0 2
9169 3 -15.71089786692051 -0.5526312490558972 -26.118260347163474 -2 2 0
9247 4 -17.178130698395965 -7.667696218871305 -25.71306444061075 -1 2 0
9241 3 -14.623314805795383 -6.943646424747435 -25.695285113335146 0 0 2
4579 3 -12.617535266922266 -8.45190618836931 -25.52426606299182 -1 -1 1
9711 3 -16.365278521702976 -5.0151846501963595 -25.58407468845101 -2 0 2
9198 3 -24.25820051654513 -3.9431609576494666 -23.88809409378207 -1 3 -1
8680 3 -24.59789194959192 -9.066791586661456 -23.251999288104543 -2 -2 -1
9168 4 -24.19609138087781 -6.331816789277739 -22.346745711387072 0 1 0
9724 4 -25.97836339034978 -3.5563034219320513 -21.908785917554802 -1 1 0
9746 4 -24.691891332550327 -1.097078849203241 -23.42761935398258 0 1 1
9692 4 -26.606757875612672 -0.5354706010127095 -20.99700897791066 -1 0 -1
9285 4 -25.705234444025074 -8.96176482061093 -20.67391766511228 0 4 -1
9731 3 -23.769635267144075 -0.8962521532951364 -20.7269508614751 0 2 0
9167 4 -27.09567714068855 -5.993130806638304 -20.47277435659454 0 0 -2
9230 4 -22.904354067817817 -3.299296598601904 -21.423665822281087 -4 0 -1
9266 4 -22.356204634765557 -8.040055207086866 -24.636860492699448 2 2 0
9141 4 -22.545277662904184 -8.882946773449016 -21.635615096452067 -1 2 1
9109 4 -22.150402914766715 -2.5678703064964936 -24.666335745640307 0 3 -1
9720 4 -21.337245764482706 -5.3153220974369235 -23.351555768621 -2 2 2
9243 3 -19.59088408387792 -7.512632624916623 -24.242219887718935 1 0 0
9715 4 -18.02444674588728 -5.484277371225346 -23.46348060663982 -3 1 0
9104 4 -19.64082452395789 -2.7116653723184982 -22.398125439701193 0 1 1
9695 3 -19.9870177504582 -0.7334855710116326 -24.497595429679063 -2 0 0
9174 4 -19.871867624506635 -7.543995473640097 -21.45984023333661 0 2 -1
9154 3 -19.56401795015266 -5.014294774280495 -21.088472070556275 -1 3 -1
9139 3 -22.037698634313934 -5.975765302404092 -20.580071344493867 0 3 -1
9172 3 -19.078087144993958 -0.2179322862370362 -21.7960772355101 1 0 1
8901 3 -17.522940726962698 -8.564357425279471 -23.09692817647701 -1 -1 1
9215 3 -17.29574007306439 -4.193117782969755 -21.12750808603422 0 0 0
9177 4 -16.586167012780976 -2.5406417928986706 -24.45392475604598 -1 2 1
9219 4 -16.537861754320264 -1.5586763016257954 -21.57026919770221 -2 1 -1
9191 3 -15.088704831926472 -9.233573841443356 -24.291685371494435 -1 2 1
9135 4 -15.26354772503417 -6.834317271504819 -22.94402542641155 -1 1 0
9183 3 -15.383132622600895 -4.014406494409283 -22.541300096285873 -2 1 1
9227 3 -14.145728935228084 -4.862088931313992 -24.497141252083836 -1 1 2
9162 3 -12.789110694491056 -6.771598346119417 -23.68186209860402 0 -1 -2
9238 4 -13.518415813119901 -2.1605361609128675 -23.308884190678143 0 1 1
9237 3 -12.826760330730453 -4.659799693369909 -22.226025382374054 -1 0 1
8750 3 -13.960809773998708 -2.5917320679714826 -20.69466792544509 -1 2 1
8773 4 -17.099909885721814 -7.014276854056619 -20.497198014294664 -2 2 -1
9165 3 -29.237449718376787 -2.889205877829409 -16.252735193466105 0 1 1
8681 3 -30.63313487015038 -0.7186221310965989 -15.882621305467122 0 1 -1
9240 4 -29.736808044729184 -5.650982876143016 -15.599739586890186 -1 2 0
8669 3 -28.64071438505043 -6.558340137375101 -17.98078290478886 -3 0 -1
8677 3 -28.188057486559664 -8.560073628602055 -16.749678714589834 1 5 1
9102 3 -28.01129961167566 -3.0044326005243622 -20.266732691944075 0 1 0
8682 4 -28.13961458598746 -1.0661974162263 -18.09829823825269 -2 1 1
8523 3 -27.81450872707421 -8.460984925156849 -19.153443870306692 0 0 0
9244 4 -27.605304458119384 -4.244718733925935 -17.995385304870428 -1 1 1
9210 3 -24.620479945358067 -4.9989339197590485 -19.707797197350455 -1 2 1
9092 3 -23.872219525672467 -7.479737906694913 -19.562132537723343 0 3 3
9157 4 -25.385698314089307 -2.4833069234702645 -19.127696664900956 -1 2 0
9261 4 -25.863243815089287 -7.099016680242589 -17.796196689104942 -1 2 0
9178 3 -24.962269592814895 -4.31316125624549 -17.18492337653604 1 0 1
9144 4 -25.48342256027147 -1.3632851979593272 -16.153816211683836 1 1 -2
9413 3 -27.208660687913586 -6.649740445710671 -15.589754466440954 -1 0 -1
9111 4 -23.127913382242987 -8.724164513346391 -16.771998972957913 -1 0 -2
9226 3 -22.847272421538964 -2.963611662982585 -18.660861003271975 -3 -1 1
9093 4 -22.554837839293004 -5.660175859517973 -17.968318987348404 -1 2 0
8893 3 -21.51304524524863 -8.238188264612633 -19.046957160618028 -2 2 -2
9188 3 -20.779662255519238 -3.8348407689957673 -19.458526816202042 1 0 1
9218 3 -18.55641647793489 -2.1892471859102933 -19.81208000516966 0 -1 0
9142 3 -20.027911321253274 -6.282177051357387 -18.959883282985494 -2 0 2
9209 4 -18.12984772559375 -4.539699303042104 -18.58232941597862 0 1 0
8769 4 -18.507175772043293 -8.463228419251696 -18.293746512000443 -1 1 1
9103 4 -20.34685168285267 -1.9879416915214965 -17.44387056512046 0 1 -1
9166 3 -21.084798743006033 -1.2667448510982375 -20.15017719798545 0 2 1
9189 3 -20.3223259342928 -4.6042012438276805 -17.001847811404154 0 -1 -1
9110 3 -20.61606421394237 -7.323115137702861 -16.739710609107235 -3 1 0
8872 4 -18.140609331905832 -6.231745096133203 -16.098045415903538 -2 3 0
9194 4 -22.899564230686185 -3.097168708042511 -15.934937722092924 -3 2 2
8846 3 -17.51382154945402 -1.7532456772316212 -17.26475767557497 -2 3 0
8914 3 -16.601126788588225 -8.531454239165997 -16.06805292047983 -3 -1 1
9231 3 -16.11258367137706 -2.9941175461106173 -19.228068780596015 -2 1 0
8779 4 -15.538494577821554 -6.433749003688237 -17.606928544574505 -1 1 -2
9097 4 -13.86592738303219 -3.238426713791969 -17.707358890771154 -1 2 2
9211 4 -14.626144360232166 -5.1180842718408766 -20.276289162708732 -2 1 2
9325 4 -14.020573094045284 -8.128851108909071 -20.221110448198353 -1 2 0
8837 4 -12.370472796240483 -6.200544511945316 -18.13303172348821 -3 2 0
8894 3 -13.111078876108627 -8.821985080529105 -17.52183115536697 -2 0 2
9112 3 -16.503174307572714 -3.8903331951853786 -16.608190016930713 -1 1 -1
9176 4 -15.607443225086792 -0.4386482932658158 -18.700302282472414 -2 2 -1
8738 3 -15.637059484808926 -0.290301994288148 -16.000899311354864 -1 0 -1
9318 3 -31.43527466647688 -3.4224716254209953 -15.2425352519928 0 1 1
9096 3 -29.308499765524772 -3.5203153872972823 -13.71585454549014 0 2 2
9321 3 -30.443917686649154 -7.3157557990879205 -13.201004889000986 -2 0 1
9278 4 -31.263403612225876 -1.6398836057656812 -13.249847340541882 -1 0 1
8683 4 -31.57513491350036 -4.801659108473281 -12.737282064028753 -2 1 -1
9464 4 -29.351924591890874 -4.990937177631226 -11.012510635194117 -3 0 1
9463 4 -28.37354765916189 -8.914236121286097 -14.125907169065618 0 2 1
9462 3 -28.50092139785379 -5.942489877984807 -13.327071596223385 -2 1 0
8670 4 -28.647378797832722 -1.9085820650803256 -11.528812306973323 -2 0 0
8673 4 -28.36370040281153 -0.8087746663649663 -14.689714711013485 -2 0 1
9119 4 -26.84943683251863 -3.9574980287361092 -15.067233198843047 -2 -1 1
9138 4 -24.151151964368285 -6.197702835628601 -15.289159585220188 -2 1 0
9283 3 -25.664569428023686 -8.793835233291396 -15.171880220893359 -1 0 0
9381 3 -23.623148546788013 -8.908899726856008 -13.63284606564229 0 4 1
9193 3 -26.163056709026904 -1.822591511125788 -13.38206533465076 -1 1 0
8874 4 -24.40189206073029 -3.894251524920643 -13.245937726076999 -2 2 2
9137 3 -23.53328980745511 -1.413666983576032 -13.616977127023862 -2 0 1
9335 4 -26.02676964116791 -6.846985008997277 -12.985788476759353 -2 3 1
9452 3 -27.105079080184737 -4.038797804883539 -12.353769585885276 0 -1 -1
9435 4 -28.39511370741762 -8.04115981167679 -11.20895270012221 -1 2 0
9476 3 -25.367367631852414 -5.190932682449174 -10.910552910526574 0 -1 0
9254 4 -25.229697391573843 -2.0866819982612372 -10.843297442710572 -2 2 1
9465 4 -22.977713024944137 -6.545019905235122 -12.411645080511487 -2 2 -1
8794 3 -21.703912612122295 -7.751598101250893 -14.642298993768888 -3 0 3
8853 3 -21.585668974091558 -5.367114310666857 -15.156004790060296 -1 0 2
8734 3 -19.069990475178358 -8.617708862347456 -15.205577480412595 1 0 -1
8758 4 -18.92740776780451 -3.3822855037425548 -14.923355832190017 -1 -1 2
8809 4 -19.63179312888151 -6.355783862238059 -13.393276372569803 2 2 -2
9217 3 -21.024137217081833 -1.5399468669101621 -14.674747122140417 -1 2 0
8796 4 -21.327495293448745 -3.7772913612220216 -13.006193613918152 -1 1 0
8768 3 -21.164247794668285 -8.72422490258289 -12.336665694160635 -2 0 1
8855 3 -19.81202727138702 -1.6038223179327444 -12.350539370342098 -1 0 2
8693 3 -18.715559298520446 -3.9631096519620606 -11.982950242239369 0 0 2
8793 3 -18.681516317274063 -8.482324523076933 -11.99404207814033 1 3 0
8875 4 -18.412255593471514 -0.46782425081480034 -14.597077613766455 -3 1 1
9466 3 -22.51233558930156 -2.0029196458143512 -11.393391606871972 -3 0 2
8722 4 -13.295149490143746 -0.9171459648132916 -11.686206400595367 0 0 -1
8915 4 -14.048844825220838 -7.3380556232498515 -15.237404450800202 -1 1 0
8797 4 -16.58389493147069 -4.804551887837502 -13.586286159575062 -4 2 2
8865 3 -16.15354879709043 -2.2912338284390876 -14.886020766668027 -3 -1 1
8895 3 -12.295081890126545 -7.5415930259502915 -10.908689848855943 -1 2 0
8703 3 -14.576512155476092 -3.000686176219414 -12.96373200836227 0 0 0
8876 4 -13.63820771790011 -5.540255661968956 -12.442820516996424 1 2 1
8710 3 -14.620058632542436 -4.53333431746575 -15.235530619482354 -1 3 1
8795 3 -13.962800772298325 -8.625666726885518 -12.501756214332534 -1 3 1
8896 4 -13.19785139625987 -1.916144581371796 -15.12414851941005 -1 -1 3
8716 3 -14.97684455373549 -0.31443129845407497 -13.68693546960377 0 3 -3
8787 4 -16.86189116853396 -1.5443696853532167 -12.246171270965336 0 1 -1
8749 4 -16.53756548865278 -7.742570731823118 -13.496789757060982 -1 0 0
8727 3 -17.58601862661648 -6.172383960190863 -11.28409962696143 -2 1 1
7343 4 -13.25148947236363 -29.44626114291075 -8.163088543783118 1 2 -1
7377 3 -14.471886010980299 -29.502982950268084 -5.813385457333741 0 2 1
9525 4 -21.46013899622024 -25.355640888758312 -9.435482466529415 1 3 1
9556 4 -18.457925084857443 -26.04932495147882 -8.552810964197237 0 1 1
8944 3 -20.656218269377998 -26.15376517033724 -6.863219941734328 0 2 -2
9067 3 -19.404898722094735 -23.923280444276408 -10.28221200116532 -1 1 -1
9500 3 -20.41236196620063 -23.79159246784654 -7.674978600944477 -2 0 0
9588 4 -18.775626577256205 -27.672846030440105 -5.7476802598711965 0 -1 2
9494 4 -22.16466723613547 -24.048051844297845 -5.713069302150398 -1 0 -1
8976 4 -18.924765697243483 -24.338739241824268 -5.36226554648206 -2 1 0
9609 3 -17.786154141988575 -28.45092240040748 -10.036209965093693 -1 2 1
9568 3 -16.7098081597244 -24.062625653548558 -10.305537064708266 0 -3 0
9566 4 -16.15245476546309 -28.386102289550973 -7.953608114430342 1 -1 2
9610 3 -15.765514060393121 -25.63437735348929 -8.42251411353289 -3 3 -1
8964 3 -13.763627459424061 -27.096357332368427 -9.503062776409081 1 4 -1
9042 3 -12.371292638555074 -25.357271510756558 -8.268949105948165 2 -1 -2
9089 4 -14.06938820002653 -24.100278593156162 -9.986936016646377 -2 1 2
7183 4 -14.131704868676449 -26.810531359416856 -6.349783214701331 1 0 2
9597 3 -16.60003207241217 -25.76741016842278 -6.114276376470175 -2 0 1
8579 4 -14.920650052896779 -23.492820631216777 -7.059101050734852 -2 2 0
8982 4 -27.56570178651116 -19.31930223941691 -7.462285373288883 -1 1 0
9300 3 -26.626495260997675 -19.86214958628404 -9.952129935150072 2 0 0
9020 4 -25.020747860511637 -21.529509992277003 -8.557451474685614 0 1 0
9495 3 -26.62342443124013 -21.456293872864013 -6.247472507604586 -2 1 -1
9608 3 -24.272751945246714 -22.31680540234658 -6.089633179641256 0 5 0
9502 4 -24.61459484506421 -19.43160498330166 -6.121333573281396 -1 2 0
9520 3 -25.295108638840446 -18.262951555192426 -8.556711818402087 -1 1 2
9531 4 -23.219578041653328 -19.923271872762502 -10.19365239899335 -1 1 -1
8984 3 -22.91108533054958 -23.150122313896677 -8.250625190011604 0 1 1
9517 3 -22.677328876069822 -18.443242524618498 -8.034287958964708 0 0 2
9491 3 -22.513263298138302 -20.88812268656115 -7.2402083841885005 -2 2 0
9488 4 -20.623456846012242 -21.59248834649901 -9.273575704419487 1 0 0
9031 3 -17.868335306237995 -20.375915667776408 -8.100101698575862 0 -2 1
9004 3 -20.295088060090126 -19.293975993080366 -7.85364677594663 -1 0 0
8949 4 -18.80466476103893 -19.07667840440526 -10.187835966593484 -2 1 -1
9514 4 -20.1503681130864 -21.47434881639375 -5.868084419743603 2 -1 3
9518 3 -21.32991258153127 -17.98812115567673 -10.03677527561731 0 0 -2
9059 4 -18.614109967296432 -18.849622444398562 -5.611987370813191 -1 0 1
9512 4 -21.710888262287533 -18.449780491277853 -5.39112406915321 -1 4 1
9075 4 -17.801016034055863 -23.022607616878684 -8.017652915104788 0 3 0
9045 3 -15.54460546207298 -21.723359381687622 -9.334771767021554 -1 -1 -1
9537 3 -13.171231442952557 -21.57750648785441 -8.208499664294981 -3 -1 1
8972 4 -15.786844158602204 -18.855359230389723 -10.150256646061393 0 -1 0
9563 4 -15.363498004633959 -20.205901637364292 -7.049839795857776 -1 1 0
8947 4 -12.886111482900539 -18.631744967584343 -8.564231503628942 -1 0 1
9076 3 -17.49671790740831 -21.564219070046594 -5.665935097777074 -2 1 0
9013 4 -13.429093036157028 -18.318398377544124 -5.48163604178325 -1 1 0
9298 4 -30.168768975736967 -12.582309240058262 -10.315805103359814 -1 0 0
9526 3 -30.080300900140156 -13.281162202653526 -7.62098470847295 0 0 0
9442 4 -24.601984487100925 -12.604289899215306 -8.040968341704003 0 2 0
8959 3 -28.67757899734109 -14.70950036586294 -9.141390382488106 -1 0 0
9527 3 -28.482863501123614 -16.985812740427864 -7.933497959675499 -1 1 1
9251 4 -27.38120851089558 -17.15710657409488 -10.402250875317813 -1 2 2
9530 4 -23.894241868539194 -16.765336792477612 -10.233791854915419 -2 1 -2
8792 3 -24.052306120211913 -14.185151816457193 -10.185600556479953 -1 0 1
9017 4 -26.114448575850215 -15.35065396106354 -8.346794552839349 -1 1 -1
9482 4 -23.483150393397967 -16.145270794862416 -7.015697809369761 -3 2 2
9513 3 -26.378938038294812 -17.202197944335094 -6.320216150189237 -2 -1 2
9507 4 -26.944566111156508 -12.95803028014879 -10.44184027121052 0 2 0
9480 4 -27.56829684989963 -12.676781475458128 -7.097053118670452 0 1 0
9506 4 -28.555912238951116 -15.279364670355482 -5.962320014475961 -1 2 2
9481 3 -28.753606209902657 -17.781659049897236 -5.441304954768763 -1 -1 -1
9483 4 -25.52838602969563 -14.4873056667206 -5.354968424095159 -1 1 0
9492 3 -22.30479703095005 -14.03784417820202 -8.47434009091748 -2 -1 3
8741 4 -19.288505074244977 -13.621481318291382 -9.500062608363299 -1 0 0
9399 3 -21.373832331533237 -15.374935697671557 -10.364621821466114 -2 2 1
9040 3 -19.15367433114223 -16.45259462409561 -10.076931501435062 0 0 0
8961 4 -20.552871104326723 -16.40282944099641 -7.897628131190693 1 1 -1
9474 4 -20.42334377777137 -13.435458468744365 -6.618929735529075 -3 0 0
9390 3 -23.049520816969565 -13.477227152977518 -6.005333429943319 0 1 -1
8690 3 -19.877564331798002 -16.30712876306226 -5.445412625960655 -1 4 1
9077 3 -17.61147086007951 -17.860790876936072 -8.079289271154563 -1 0 2
8943 4 -17.65519775164275 -15.30064262316963 -7.030615887201543 -1 1 0
8902 4 -16.236055112187852 -12.724670767066485 -10.15864308858013 -1 1 -1
9046 4 -16.726704869001676 -15.71392707069751 -10.149094827596562 -1 5 2
8886 4 -13.17000759764801 -13.082726041070782 -9.622972282668306 -2 1 0
8825 3 -15.217388512520879 -14.334505431000773 -7.896182492957259 2 0 1
9011 3 -14.201443389792042 -15.975479778323804 -9.480286184654187 -1 3 0
9022 3 -15.140019620627928 -17.118074388366313 -7.701647439072284 -2 -2 0
8974 4 -12.409819132375885 -15.709489633673074 -7.026809100267114 -2 2 0
8909 4 -13.767908016317756 -13.188236713271557 -5.570681362323017 0 1 -1
8955 3 -16.18256267529409 -17.822934179832686 -5.693732218035753 0 2 1
8991 3 -15.118914932621502 -15.582787001721057 -5.499177952197552 -3 0 -2
9505 3 -24.047188148480554 -23.472711890164323 -3.8212053509895343 0 -1 0