LAMMPS (29 Oct 2020)
##################################################################
##IN.CLUSTER_ANNEAL_DATA					##
##Anneal and segregate already prepared amorphous cluster	##
##Dependencies	: none						##
##Influences: /data						##
##################################################################
## ver. : 2020-07-17, Syamal Praneeth Chilakalapudi, KIT, INT	##
##Author Email    :syamalpraneeth@gmail.com			##
##################################################################

#--------------------------------------------------------------VARIABLES FROM COMMAND LINE
variable        pot string ${args}
variable        pot string Cu-Zr_4.eam.fs
next            args
variable        e1 string ${args}
variable        e1 string Cu
next            args
variable        e2 string ${args}
variable        e2 string Zr
next            args
variable        x equal ${args}
variable        x equal 50
next            args
variable        y equal ${args}
variable        y equal 50
variable        frac equal $y/($x+$y)
variable        frac equal 50/($x+$y)
variable        frac equal 50/(50+$y)
variable        frac equal 50/(50+50)
next            args
variable        T1 equal ${args}
variable        T1 equal 2000
next            args
variable	heat_ramp equal ${args}			#0.05/ps ramp rate
variable	heat_ramp equal 50			

variable        th equal ${T1}/40			#thermo and dump values evaluated
variable        th equal 2000/40			
variable        df equal ${T1}/20
variable        df equal 2000/20

variable	lat equal 3.6				#lattice parameter to define spacings

variable	T_hot equal 2000
variable	T_cool equal 50
variable	T_heat equal 1000
#variable        T2 equal (${T_heat}-${T_cool})*((10^3)/(${quench_ramp})) #0.1K/ps quench rate at 1 atm pressure
variable	ht equal (${T_heat}-${T_cool})*((10^3)/(${heat_ramp})) #0.5K/ps quench rate at 1 atm pressure
variable	ht equal (1000-${T_cool})*((10^3)/(${heat_ramp})) 
variable	ht equal (1000-50)*((10^3)/(${heat_ramp})) 
variable	ht equal (1000-50)*((10^3)/(50)) 

variable        t1 equal ${T1}/10
variable        t1 equal 2000/10
variable        t equal ${ht}/25
variable        t equal 19000/25
variable        ht_inter equal (${ht}/10)
variable        ht_inter equal (19000/10)

#--------------------------------------------------------------------------------INTIALISE
units           metal					#fundamental LAMMPS and MD conditions initialization
dimension       3
atom_style      atomic
boundary        p p p
lattice		bcc ${lat}
lattice		bcc 3.6
Lattice spacing in x,y,z = 3.6000000 3.6000000 3.6000000

read_restart	../restart.msr_20
Reading restart file ...
  restart file = 29 Oct 2020, LAMMPS = 29 Oct 2020
WARNING: Restart file used different # of processors: 64 vs. 30 (../read_restart.cpp:697)
  restoring atom style atomic from restart
  orthogonal box = (-32.899909 -32.894461 -32.901225) to (101.28037 101.28365 101.28218)
  3 by 2 by 5 MPI processor grid
  pair style eam/fs stores no restart info
  135696 atoms
  read_restart CPU = 0.021 seconds

neigh_modify	every 1 delay 0 check yes

newton		on
pair_style	eam/fs					#EAM potentials best for metallic systems
pair_coeff      * * ${pot} ${e1} ${e2} ${e1} ${e2}	#4 types to unify data files to fit with CIBD deposited cluster tracking feature with atom ID offsets
pair_coeff      * * Cu-Zr_4.eam.fs ${e1} ${e2} ${e1} ${e2}	
pair_coeff      * * Cu-Zr_4.eam.fs Cu ${e2} ${e1} ${e2}	
pair_coeff      * * Cu-Zr_4.eam.fs Cu Zr ${e1} ${e2}	
pair_coeff      * * Cu-Zr_4.eam.fs Cu Zr Cu ${e2}	
pair_coeff      * * Cu-Zr_4.eam.fs Cu Zr Cu Zr	
reset_timestep  0

info groups fixes variables regions

#-----------------------------------------------------------------FIXES FOR SUBSTRATE
fix             corint all property/atom i_int

#--------------------------------------------------------------------------------COMPUTES
compute         c1 all temp
compute_modify  c1 dynamic/dof yes extra/dof 0		#It seemed like a dynamic evaluation was better
compute		c2 all pe/atom

#--------------------------------------------------------------------------------THERMO
thermo_style    custom step pe ke press temp vol enthalpy density etotal #c_c5 c_c6 #c_c4
thermo_modify   format float "% .6e"
thermo_modify   temp c1
thermo          ${th}
thermo          50
timestep        0.0010					#standard timestep 1fs for metallic systems

write_dump all custom dump_msr.atom id type x y z vx vy vz i_int
WARNING: Calling write_dump before a full system init. (../write_dump.cpp:81)
dump            d1 all custom ${df} data/lammpstrj.dep.msr id type x y z vx vy vz i_int #save atom trajectories/timestep for visualisation
dump            d1 all custom 100 data/lammpstrj.dep.msr id type x y z vx vy vz i_int 

#--------------------------------------------------------------------------------BALANCE AND EQUILIBRATE
comm_style	tiled					#to allow for rcb style (weighted balancing) of balancing of atoms across processors
balance		1.0 rcb out data/tmp.balance1_msr	#rebalance atoms on processors after deleting atoms outside sphere
Balancing ...
Neighbor list info ...
  update every 1 steps, delay 0 steps, check yes
  max neighbors/atom: 2000, page size: 100000
  master list distance cutoff = 9.6
  ghost atom cutoff = 9.6
  binsize = 4.8, bins = 28 28 28
  1 neighbor lists, perpetual/occasional/extra = 1 0 0
  (1) pair eam/fs, perpetual
      attributes: half, newton on
      pair build: half/bin/atomonly/newton
      stencil: half/bin/3d/newton
      bin: standard
 rebalancing time: 0.012 seconds
  iteration count = 0
  initial/final maximal load/proc = 4557.0000 4524.0000
  initial/final imbalance factor  = 1.0074726 1.0001769

#fix		hold all npt temp ${T_cool} ${T_cool} 0.1 iso 0 0 0.1		#equilibriate cluster at T_cool temperature
#run             ${T1} #every ${t1} "write_restart data/restart.equilib_1_msr" "print 'Succeeded step $(step); target step ${tstop}' append data/success.equilib_1_msr"
#write_restart   data/restart.equilib_1_msr
#unfix		hold

#-------------------------------------------------------------------------------HEATING
variable	loopsiz equal 20
variable	dT equal (${T_heat}-${T_cool})/${loopsiz}
variable	dT equal (1000-${T_cool})/${loopsiz}
variable	dT equal (1000-50)/${loopsiz}
variable	dT equal (1000-50)/20
variable	Temp1 equal ${T_cool}
variable	Temp1 equal 50
variable	Temp2 equal ${T_cool}+${dT}
variable	Temp2 equal 50+${dT}
variable	Temp2 equal 50+47.5
variable        tstop equal $(step)+${ht}
variable        tstop equal 0+${ht}
variable        tstop equal 0+19000

variable	hloop loop ${loopsiz}
variable	hloop loop 20
label		l3
	fix     heat all npt temp ${Temp1} ${Temp2} 0.1 iso 0 0 0.1
	fix     heat all npt temp 50 ${Temp2} 0.1 iso 0 0 0.1
	fix     heat all npt temp 50 97.5 0.1 iso 0 0 0.1
	run	${ht_inter}
	run	1900
Per MPI rank memory allocation (min/avg/max) = 6.653 | 6.655 | 6.660 Mbytes
Step PotEng KinEng Press Temp Volume Enthalpy Density TotEng 
       0 -6.747940e+05  8.765437e+02  1.711649e+01  4.997374e+01  2.415846e+06 -6.738916e+05  7.222804e+00 -6.739174e+05 
      50 -6.747960e+05  8.803534e+02  1.724848e+01  5.019095e+01  2.415868e+06 -6.738896e+05  7.222736e+00 -6.739156e+05 
     100 -6.747868e+05  8.774220e+02  1.716959e+01  5.002382e+01  2.415825e+06 -6.738835e+05  7.222865e+00 -6.739094e+05 
     150 -6.747893e+05  8.894444e+02  1.622755e+01  5.070924e+01  2.415798e+06 -6.738754e+05  7.222948e+00 -6.738999e+05 
     200 -6.747803e+05  8.931837e+02  4.817840e+00  5.092243e+01  2.415920e+06 -6.738799e+05  7.222580e+00 -6.738872e+05 
     250 -6.747737e+05  9.020143e+02 -2.169797e+01  5.142588e+01  2.415981e+06 -6.739044e+05  7.222399e+00 -6.738717e+05 
     300 -6.747627e+05  9.091057e+02 -5.343232e+01  5.183018e+01  2.416068e+06 -6.739342e+05  7.222140e+00 -6.738536e+05 
     350 -6.747518e+05  9.187268e+02 -8.567287e+01  5.237870e+01  2.416161e+06 -6.739622e+05  7.221861e+00 -6.738330e+05 
     400 -6.747409e+05  9.305083e+02 -1.146836e+02  5.305039e+01  2.416222e+06 -6.739833e+05  7.221679e+00 -6.738103e+05 
     450 -6.747284e+05  9.428629e+02 -1.324243e+02  5.375475e+01  2.416247e+06 -6.739853e+05  7.221605e+00 -6.737856e+05 
     500 -6.747159e+05  9.569763e+02 -1.280012e+02  5.455939e+01  2.416294e+06 -6.739519e+05  7.221464e+00 -6.737589e+05 
     550 -6.747015e+05  9.710161e+02 -9.386629e+01  5.535983e+01  2.416298e+06 -6.738720e+05  7.221453e+00 -6.737305e+05 
     600 -6.746845e+05  9.843312e+02 -4.059820e+01  5.611895e+01  2.416202e+06 -6.737614e+05  7.221739e+00 -6.737002e+05 
     650 -6.746694e+05  1.001137e+03 -2.008921e+00  5.707709e+01  2.416190e+06 -6.736713e+05  7.221776e+00 -6.736683e+05 
     700 -6.746513e+05  1.016555e+03  1.580174e+01  5.795610e+01  2.416269e+06 -6.736109e+05  7.221538e+00 -6.736347e+05 
     750 -6.746361e+05  1.036503e+03  2.571953e+01  5.909340e+01  2.416261e+06 -6.735608e+05  7.221562e+00 -6.735996e+05 
     800 -6.746148e+05  1.051703e+03  3.394215e+01  5.995997e+01  2.416234e+06 -6.735119e+05  7.221643e+00 -6.735631e+05 
     850 -6.745976e+05  1.072449e+03  4.593534e+01  6.114275e+01  2.416260e+06 -6.734558e+05  7.221565e+00 -6.735251e+05 
     900 -6.745762e+05  1.090484e+03  8.592961e+01  6.217098e+01  2.416273e+06 -6.733562e+05  7.221526e+00 -6.734857e+05 
     950 -6.745599e+05  1.114800e+03  1.523316e+02  6.355730e+01  2.416141e+06 -6.732154e+05  7.221920e+00 -6.734451e+05 
    1000 -6.745381e+05  1.134842e+03  1.540039e+02  6.469993e+01  2.416232e+06 -6.731710e+05  7.221650e+00 -6.734032e+05 
    1050 -6.745146e+05  1.154337e+03  1.094452e+02  6.581139e+01  2.416422e+06 -6.731951e+05  7.221081e+00 -6.733602e+05 
    1100 -6.744870e+05  1.171208e+03  5.856205e+01  6.677325e+01  2.416546e+06 -6.732275e+05  7.220710e+00 -6.733158e+05 
    1150 -6.744708e+05  1.200422e+03  2.367275e+01  6.843881e+01  2.416614e+06 -6.732346e+05  7.220507e+00 -6.732703e+05 
    1200 -6.744427e+05  1.218883e+03  3.407927e+00  6.949126e+01  2.416764e+06 -6.732187e+05  7.220060e+00 -6.732238e+05 
    1250 -6.744186e+05  1.242461e+03 -9.251867e+00  7.083551e+01  2.416943e+06 -6.731901e+05  7.219525e+00 -6.731762e+05 
    1300 -6.743975e+05  1.269794e+03 -1.427013e+01  7.239386e+01  2.417116e+06 -6.731492e+05  7.219006e+00 -6.731277e+05 
    1350 -6.743692e+05  1.291001e+03 -1.185655e+01  7.360287e+01  2.417213e+06 -6.730961e+05  7.218718e+00 -6.730782e+05 
    1400 -6.743486e+05  1.320675e+03 -1.040245e+01  7.529468e+01  2.417218e+06 -6.730437e+05  7.218704e+00 -6.730280e+05 
    1450 -6.743179e+05  1.340947e+03 -1.104701e+01  7.645045e+01  2.417281e+06 -6.729937e+05  7.218516e+00 -6.729770e+05 
    1500 -6.742941e+05  1.368863e+03 -1.410465e+01  7.804200e+01  2.417349e+06 -6.729465e+05  7.218311e+00 -6.729252e+05 
    1550 -6.742646e+05  1.391929e+03 -2.691977e+01  7.935703e+01  2.417520e+06 -6.729133e+05  7.217802e+00 -6.728727e+05 
    1600 -6.742382e+05  1.418642e+03 -5.372861e+01  8.088000e+01  2.417647e+06 -6.729006e+05  7.217421e+00 -6.728195e+05 
    1650 -6.742119e+05  1.446153e+03 -7.125743e+01  8.244846e+01  2.417683e+06 -6.728733e+05  7.217313e+00 -6.727657e+05 
    1700 -6.741889e+05  1.477079e+03 -9.391448e+01  8.421163e+01  2.417719e+06 -6.728535e+05  7.217207e+00 -6.727118e+05 
    1750 -6.741544e+05  1.496999e+03 -1.298723e+02  8.534729e+01  2.417856e+06 -6.728534e+05  7.216799e+00 -6.726574e+05 
    1800 -6.741291e+05  1.526735e+03 -1.691378e+02  8.704261e+01  2.418040e+06 -6.728577e+05  7.216250e+00 -6.726024e+05 
    1850 -6.740996e+05  1.552366e+03 -1.774242e+02  8.850389e+01  2.418133e+06 -6.728150e+05  7.215971e+00 -6.725472e+05 
    1900 -6.740755e+05  1.583655e+03 -1.291018e+02  9.028775e+01  2.418152e+06 -6.726867e+05  7.215913e+00 -6.724918e+05 
Loop time of 41.4871 on 30 procs for 1900 steps with 135696 atoms

Performance: 3.957 ns/day, 6.065 hours/ns, 45.797 timesteps/s
96.8% CPU use with 30 MPI tasks x no OpenMP threads

MPI task timing breakdown:
Section |  min time  |  avg time  |  max time  |%varavg| %total
---------------------------------------------------------------
Pair    | 38.086     | 38.925     | 40.371     |   9.2 | 93.82
Neigh   | 0          | 0          | 0          |   0.0 |  0.00
Comm    | 0.44028    | 1.8455     | 2.6728     |  42.0 |  4.45
Output  | 0.27294    | 0.27298    | 0.27354    |   0.0 |  0.66
Modify  | 0.31173    | 0.35341    | 0.38793    |   4.0 |  0.85
Other   |            | 0.09057    |            |       |  0.22

Nlocal:        4523.20 ave        4526 max        4521 min
Histogram: 2 0 6 0 12 0 6 0 2 2
Nghost:        9528.50 ave       10128 max        9370 min
Histogram: 10 3 15 0 0 0 0 0 0 2
Neighs:       465468.0 ave      471628 max      458691 min
Histogram: 1 1 5 2 6 3 4 3 4 1

Total # of neighbors = 13964032
Ave neighs/atom = 102.90673
Neighbor list builds = 0
Dangerous builds = 0
	write_restart data/restart.heat_msr
System init for write_restart ...
	unfix	heat
	fix	rest all npt temp ${Temp2} ${Temp2} 0.1 iso 0 0 0.1
	fix	rest all npt temp 97.5 ${Temp2} 0.1 iso 0 0 0.1
	fix	rest all npt temp 97.5 97.5 0.1 iso 0 0 0.1
	run     ${T1}
	run     2000
Per MPI rank memory allocation (min/avg/max) = 6.653 | 6.655 | 6.660 Mbytes
Step PotEng KinEng Press Temp Volume Enthalpy Density TotEng 
    1900 -6.740755e+05  1.583655e+03 -1.291018e+02  9.028775e+01  2.418152e+06 -6.726867e+05  7.215913e+00 -6.724918e+05 
    1950 -6.740595e+05  1.582962e+03  9.508534e+01  9.024823e+01  2.417812e+06 -6.723331e+05  7.216928e+00 -6.724766e+05 
    2000 -6.740535e+05  1.599810e+03 -1.374575e+01  9.120878e+01  2.418102e+06 -6.724745e+05  7.216065e+00 -6.724537e+05 
    2050 -6.740420e+05  1.613557e+03 -6.856573e+01  9.199255e+01  2.418238e+06 -6.725319e+05  7.215659e+00 -6.724284e+05 
    2100 -6.740260e+05  1.623834e+03  1.041757e+02  9.257844e+01  2.418016e+06 -6.722450e+05  7.216321e+00 -6.724022e+05 
    2150 -6.740165e+05  1.640757e+03 -8.110293e+01  9.354330e+01  2.418467e+06 -6.724982e+05  7.214974e+00 -6.723758e+05 
    2200 -6.740034e+05  1.653080e+03  2.992485e+01  9.424585e+01  2.418212e+06 -6.723051e+05  7.215735e+00 -6.723503e+05 
    2250 -6.739888e+05  1.663259e+03  1.650486e+01  9.482615e+01  2.418224e+06 -6.723006e+05  7.215699e+00 -6.723255e+05 
    2300 -6.739716e+05  1.669572e+03 -4.424996e+01  9.518607e+01  2.418334e+06 -6.723688e+05  7.215370e+00 -6.723020e+05 
    2350 -6.739664e+05  1.686872e+03  5.082461e+01  9.617239e+01  2.418072e+06 -6.722028e+05  7.216154e+00 -6.722795e+05 
    2400 -6.739485e+05  1.689063e+03 -3.846512e+01  9.629729e+01  2.418378e+06 -6.723175e+05  7.215241e+00 -6.722594e+05 
    2450 -6.739500e+05  1.708711e+03  7.259246e+00  9.741747e+01  2.418348e+06 -6.722304e+05  7.215329e+00 -6.722413e+05 
    2500 -6.739379e+05  1.710175e+03  5.674627e+01  9.750093e+01  2.418331e+06 -6.721421e+05  7.215381e+00 -6.722277e+05 
    2550 -6.739341e+05  1.716995e+03 -1.499951e+02  9.788977e+01  2.418741e+06 -6.724436e+05  7.214157e+00 -6.722171e+05 
    2600 -6.739267e+05  1.716128e+03  1.777288e+02  9.784036e+01  2.418093e+06 -6.719423e+05  7.216089e+00 -6.722106e+05 
    2650 -6.739305e+05  1.722505e+03 -9.423414e+01  9.820394e+01  2.418626e+06 -6.723502e+05  7.214502e+00 -6.722080e+05 
    2700 -6.739272e+05  1.716380e+03 -2.405195e+01  9.785474e+01  2.418410e+06 -6.722471e+05  7.215146e+00 -6.722108e+05 
    2750 -6.739333e+05  1.716114e+03  9.266748e+01  9.783953e+01  2.418141e+06 -6.720774e+05  7.215948e+00 -6.722172e+05 
    2800 -6.739339e+05  1.708769e+03 -1.000192e+02  9.742079e+01  2.418556e+06 -6.723761e+05  7.214708e+00 -6.722252e+05 
    2850 -6.739436e+05  1.711024e+03  6.826896e+01  9.754934e+01  2.418110e+06 -6.721295e+05  7.216041e+00 -6.722326e+05 
    2900 -6.739420e+05  1.702990e+03 -2.056962e+01  9.709135e+01  2.418293e+06 -6.722701e+05  7.215494e+00 -6.722390e+05 
    2950 -6.739499e+05  1.707191e+03 -2.386743e+01  9.733085e+01  2.418323e+06 -6.722787e+05  7.215404e+00 -6.722427e+05 
    3000 -6.739436e+05  1.699802e+03  4.025101e+01  9.690957e+01  2.418206e+06 -6.721831e+05  7.215753e+00 -6.722438e+05 
    3050 -6.739447e+05  1.704274e+03 -2.953850e+01  9.716450e+01  2.418373e+06 -6.722850e+05  7.215256e+00 -6.722405e+05 
    3100 -6.739431e+05  1.708486e+03  1.481479e+01  9.740466e+01  2.418375e+06 -6.722122e+05  7.215251e+00 -6.722346e+05 
    3150 -6.739382e+05  1.710279e+03 -1.035454e+00  9.750687e+01  2.418409e+06 -6.722295e+05  7.215149e+00 -6.722280e+05 
    3200 -6.739391e+05  1.717077e+03 -1.074948e+01  9.789447e+01  2.418423e+06 -6.722383e+05  7.215107e+00 -6.722221e+05 
    3250 -6.739319e+05  1.712860e+03  1.948550e+01  9.765401e+01  2.418388e+06 -6.721896e+05  7.215210e+00 -6.722190e+05 
    3300 -6.739312e+05  1.713343e+03 -2.420218e+01  9.768156e+01  2.418519e+06 -6.722544e+05  7.214820e+00 -6.722179e+05 
    3350 -6.739362e+05  1.717831e+03  1.842182e+01  9.793747e+01  2.418389e+06 -6.721905e+05  7.215207e+00 -6.722183e+05 
    3400 -6.739362e+05  1.714153e+03  1.395128e+01  9.772772e+01  2.418300e+06 -6.722010e+05  7.215473e+00 -6.722221e+05 
    3450 -6.739391e+05  1.711176e+03 -6.330675e+01  9.755804e+01  2.418518e+06 -6.723235e+05  7.214824e+00 -6.722279e+05 
    3500 -6.739411e+05  1.707310e+03  9.721731e+01  9.733762e+01  2.418233e+06 -6.720870e+05  7.215674e+00 -6.722337e+05 
    3550 -6.739431e+05  1.705036e+03 -9.004558e+01  9.720795e+01  2.418450e+06 -6.723740e+05  7.215024e+00 -6.722381e+05 
    3600 -6.739425e+05  1.702968e+03  2.864176e+01  9.709007e+01  2.418187e+06 -6.721963e+05  7.215809e+00 -6.722396e+05 
    3650 -6.739492e+05  1.711077e+03  7.257522e+01  9.755236e+01  2.418110e+06 -6.721286e+05  7.216041e+00 -6.722381e+05 
    3700 -6.739437e+05  1.707154e+03 -1.586426e+02  9.732873e+01  2.418647e+06 -6.724761e+05  7.214437e+00 -6.722366e+05 
    3750 -6.739430e+05  1.708913e+03  1.646909e+02  9.742902e+01  2.418006e+06 -6.719855e+05  7.216351e+00 -6.722341e+05 
    3800 -6.739350e+05  1.704795e+03 -8.133319e+01  9.719424e+01  2.418503e+06 -6.723530e+05  7.214869e+00 -6.722302e+05 
    3850 -6.739348e+05  1.710113e+03 -4.378969e+00  9.749744e+01  2.418354e+06 -6.722313e+05  7.215313e+00 -6.722247e+05 
    3900 -6.739328e+05  1.713385e+03  4.042602e+01  9.768397e+01  2.418330e+06 -6.721584e+05  7.215383e+00 -6.722195e+05 
Loop time of 43.365 on 30 procs for 2000 steps with 135696 atoms

Performance: 3.985 ns/day, 6.023 hours/ns, 46.120 timesteps/s
97.1% CPU use with 30 MPI tasks x no OpenMP threads

MPI task timing breakdown:
Section |  min time  |  avg time  |  max time  |%varavg| %total
---------------------------------------------------------------
Pair    | 39.951     | 40.872     | 42.228     |   9.6 | 94.25
Neigh   | 0.01038    | 0.010633   | 0.010941   |   0.1 |  0.02
Comm    | 0.46139    | 1.7753     | 2.6743     |  45.7 |  4.09
Output  | 0.24043    | 0.24047    | 0.24093    |   0.0 |  0.55
Modify  | 0.32699    | 0.37189    | 0.40679    |   4.0 |  0.86
Other   |            | 0.09476    |            |       |  0.22

Nlocal:        4523.20 ave        4540 max        4506 min
Histogram: 1 1 4 5 4 5 3 5 1 1
Nghost:        9522.40 ave       10130 max        9379 min
Histogram: 11 10 7 0 0 0 0 0 0 2
Neighs:       464975.0 ave      471896 max      457329 min
Histogram: 1 1 3 4 4 5 6 2 2 2

Total # of neighbors = 13949251
Ave neighs/atom = 102.79781
Neighbor list builds = 1
Dangerous builds = 0
	unfix	rest
	print 'Loop ${hloop}; succeeded temp ${Temp2} target ${T_heat}' append data/success.heat_msr
Loop 1; succeeded temp 97.5 target 1000
	variable Temp1 equal ${Temp2}
	variable Temp1 equal 97.5
	variable Temp2 equal ${Temp2}+${dT}
	variable Temp2 equal 97.5+${dT}
	variable Temp2 equal 97.5+47.5
next		hloop
jump		SELF l3
	fix     heat all npt temp ${Temp1} ${Temp2} 0.1 iso 0 0 0.1
	fix     heat all npt temp 97.5 ${Temp2} 0.1 iso 0 0 0.1
	fix     heat all npt temp 97.5 145 0.1 iso 0 0 0.1
	run	${ht_inter}
	run	1900
Per MPI rank memory allocation (min/avg/max) = 6.654 | 6.656 | 6.661 Mbytes
Step PotEng KinEng Press Temp Volume Enthalpy Density TotEng 
    3900 -6.739328e+05  1.713385e+03  4.042602e+01  9.768397e+01  2.418330e+06 -6.721584e+05  7.215383e+00 -6.722195e+05 
    3950 -6.739358e+05  1.717293e+03 -3.369546e+01  9.790676e+01  2.418484e+06 -6.722693e+05  7.214925e+00 -6.722185e+05 
    4000 -6.739296e+05  1.719012e+03  1.143058e+01  9.800476e+01  2.418419e+06 -6.721933e+05  7.215118e+00 -6.722105e+05 
    4050 -6.739279e+05  1.727379e+03  3.665477e+01  9.848181e+01  2.418373e+06 -6.721452e+05  7.215256e+00 -6.722006e+05 
    4100 -6.739184e+05  1.732872e+03 -1.212985e+02  9.879496e+01  2.418760e+06 -6.723686e+05  7.214100e+00 -6.721855e+05 
    4150 -6.739081e+05  1.741086e+03  1.589792e+02  9.926325e+01  2.418194e+06 -6.719270e+05  7.215790e+00 -6.721670e+05 
    4200 -6.738988e+05  1.753985e+03 -9.986494e+01  9.999866e+01  2.418692e+06 -6.722956e+05  7.214304e+00 -6.721448e+05 
    4250 -6.738844e+05  1.764567e+03 -5.464117e+00  1.006020e+02  2.418560e+06 -6.721281e+05  7.214698e+00 -6.721199e+05 
    4300 -6.738719e+05  1.779509e+03  8.761220e+01  1.014538e+02  2.418378e+06 -6.719601e+05  7.215240e+00 -6.720924e+05 
    4350 -6.738519e+05  1.789726e+03 -1.123353e+02  1.020363e+02  2.418820e+06 -6.722317e+05  7.213921e+00 -6.720621e+05 
    4400 -6.738381e+05  1.808438e+03  8.455668e+01  1.031032e+02  2.418566e+06 -6.719020e+05  7.214678e+00 -6.720297e+05 
    4450 -6.738214e+05  1.826254e+03 -3.276737e+01  1.041189e+02  2.418933e+06 -6.720446e+05  7.213584e+00 -6.719952e+05 
    4500 -6.738044e+05  1.845341e+03 -8.413156e+00  1.052071e+02  2.418866e+06 -6.719717e+05  7.213786e+00 -6.719590e+05 
    4550 -6.737852e+05  1.864060e+03  2.304594e+01  1.062743e+02  2.418762e+06 -6.718863e+05  7.214094e+00 -6.719211e+05 
    4600 -6.737601e+05  1.878437e+03 -2.267014e+01  1.070940e+02  2.418959e+06 -6.719159e+05  7.213507e+00 -6.718816e+05 
    4650 -6.737467e+05  1.906212e+03  1.689118e+01  1.086774e+02  2.418927e+06 -6.718150e+05  7.213603e+00 -6.718405e+05 
    4700 -6.737227e+05  1.924323e+03 -7.599944e+00  1.097100e+02  2.419098e+06 -6.718098e+05  7.213092e+00 -6.717984e+05 
    4750 -6.736944e+05  1.939637e+03 -6.374769e+00  1.105831e+02  2.419249e+06 -6.717643e+05  7.212641e+00 -6.717547e+05 
    4800 -6.736765e+05  1.966707e+03  4.642783e+01  1.121264e+02  2.419055e+06 -6.716397e+05  7.213220e+00 -6.717098e+05 
    4850 -6.736542e+05  1.990328e+03 -9.741186e+01  1.134731e+02  2.419267e+06 -6.718110e+05  7.212590e+00 -6.716639e+05 
    4900 -6.736282e+05  2.011012e+03  1.085252e+02  1.146524e+02  2.419041e+06 -6.714534e+05  7.213262e+00 -6.716172e+05 
    4950 -6.736007e+05  2.031132e+03 -7.059337e+01  1.157994e+02  2.419477e+06 -6.716761e+05  7.211962e+00 -6.715695e+05 
    5000 -6.735822e+05  2.061406e+03 -2.058611e+01  1.175254e+02  2.419388e+06 -6.715519e+05  7.212228e+00 -6.715208e+05 
    5050 -6.735512e+05  2.079552e+03  1.297144e+02  1.185600e+02  2.419224e+06 -6.712758e+05  7.212718e+00 -6.714717e+05 
    5100 -6.735340e+05  2.112147e+03 -1.758667e+02  1.204183e+02  2.419885e+06 -6.716875e+05  7.210746e+00 -6.714218e+05 
    5150 -6.735062e+05  2.134240e+03  1.332693e+02  1.216779e+02  2.419330e+06 -6.711707e+05  7.212401e+00 -6.713720e+05 
    5200 -6.734728e+05  2.151554e+03 -6.283237e+01  1.226650e+02  2.419862e+06 -6.714161e+05  7.210815e+00 -6.713212e+05 
    5250 -6.734518e+05  2.182239e+03  1.058246e+01  1.244144e+02  2.419756e+06 -6.712536e+05  7.211131e+00 -6.712696e+05 
    5300 -6.734266e+05  2.208394e+03  2.256756e+01  1.259056e+02  2.419809e+06 -6.711841e+05  7.210974e+00 -6.712182e+05 
    5350 -6.733947e+05  2.228303e+03 -4.325345e+01  1.270406e+02  2.420113e+06 -6.712318e+05  7.210067e+00 -6.711664e+05 
    5400 -6.733778e+05  2.263784e+03  5.743413e+01  1.290634e+02  2.419962e+06 -6.710273e+05  7.210517e+00 -6.711140e+05 
    5450 -6.733410e+05  2.278654e+03 -8.485195e+01  1.299113e+02  2.420339e+06 -6.711906e+05  7.209396e+00 -6.710624e+05 
    5500 -6.733223e+05  2.312400e+03  9.191312e+01  1.318351e+02  2.420110e+06 -6.708710e+05  7.210077e+00 -6.710099e+05 
    5550 -6.732933e+05  2.335542e+03 -1.163311e+01  1.331545e+02  2.420319e+06 -6.709753e+05  7.209454e+00 -6.709577e+05 
    5600 -6.732643e+05  2.358665e+03 -1.009364e+02  1.344728e+02  2.420529e+06 -6.710581e+05  7.208829e+00 -6.709056e+05 
    5650 -6.732335e+05  2.380474e+03  1.456811e+02  1.357162e+02  2.420195e+06 -6.706330e+05  7.209822e+00 -6.708530e+05 
    5700 -6.732170e+05  2.416630e+03 -1.196486e+02  1.377775e+02  2.420896e+06 -6.709812e+05  7.207736e+00 -6.708004e+05 
    5750 -6.731869e+05  2.437664e+03  7.974891e+01  1.389768e+02  2.420537e+06 -6.706288e+05  7.208805e+00 -6.707493e+05 
    5800 -6.731570e+05  2.459652e+03 -4.474148e+01  1.402303e+02  2.420853e+06 -6.707649e+05  7.207862e+00 -6.706973e+05 
Loop time of 41.2852 on 30 procs for 1900 steps with 135696 atoms

Performance: 3.976 ns/day, 6.036 hours/ns, 46.021 timesteps/s
97.1% CPU use with 30 MPI tasks x no OpenMP threads

MPI task timing breakdown:
Section |  min time  |  avg time  |  max time  |%varavg| %total
---------------------------------------------------------------
Pair    | 37.97      | 38.91      | 40.203     |   9.8 | 94.25
Neigh   | 0.010393   | 0.010626   | 0.010996   |   0.1 |  0.03
Comm    | 0.44249    | 1.6946     | 2.6191     |  46.6 |  4.10
Output  | 0.22581    | 0.22584    | 0.22628    |   0.0 |  0.55
Modify  | 0.31156    | 0.35406    | 0.38728    |   3.9 |  0.86
Other   |            | 0.08997    |            |       |  0.22

Nlocal:        4523.20 ave        4538 max        4511 min
Histogram: 1 5 2 3 9 4 1 3 0 2
Nghost:        9519.00 ave       10150 max        9374 min
Histogram: 12 9 7 0 0 0 0 0 0 2
Neighs:       464528.0 ave      470971 max      457451 min
Histogram: 1 2 5 1 5 4 4 4 3 1

Total # of neighbors = 13935827
Ave neighs/atom = 102.69888
Neighbor list builds = 1
Dangerous builds = 0
	write_restart data/restart.heat_msr
System init for write_restart ...
	unfix	heat
	fix	rest all npt temp ${Temp2} ${Temp2} 0.1 iso 0 0 0.1
	fix	rest all npt temp 145 ${Temp2} 0.1 iso 0 0 0.1
	fix	rest all npt temp 145 145 0.1 iso 0 0 0.1
	run     ${T1}
	run     2000
Per MPI rank memory allocation (min/avg/max) = 6.654 | 6.656 | 6.661 Mbytes
Step PotEng KinEng Press Temp Volume Enthalpy Density TotEng 
    5800 -6.731570e+05  2.459652e+03 -4.474148e+01  1.402303e+02  2.420853e+06 -6.707649e+05  7.207862e+00 -6.706973e+05 
    5850 -6.731524e+05  2.469431e+03  4.530662e+01  1.407879e+02  2.420791e+06 -6.706145e+05  7.208049e+00 -6.706830e+05 
    5900 -6.731387e+05  2.474179e+03 -4.931581e+01  1.410586e+02  2.420991e+06 -6.707390e+05  7.207454e+00 -6.706645e+05 
    5950 -6.731339e+05  2.491238e+03  6.082770e+01  1.420311e+02  2.420637e+06 -6.705507e+05  7.208507e+00 -6.706426e+05 
    6000 -6.731100e+05  2.489711e+03 -6.891010e+01  1.419441e+02  2.420979e+06 -6.707245e+05  7.207488e+00 -6.706203e+05 
    6050 -6.731169e+05  2.518641e+03  4.277110e+01  1.435935e+02  2.420871e+06 -6.705337e+05  7.207809e+00 -6.705983e+05 
    6100 -6.730952e+05  2.516684e+03  4.495451e+00  1.434819e+02  2.420970e+06 -6.705717e+05  7.207516e+00 -6.705785e+05 
    6150 -6.730908e+05  2.530458e+03 -5.186785e+01  1.442671e+02  2.421162e+06 -6.706387e+05  7.206944e+00 -6.705603e+05 
    6200 -6.730823e+05  2.538296e+03  8.465791e+01  1.447140e+02  2.420912e+06 -6.704161e+05  7.207687e+00 -6.705440e+05 
    6250 -6.730712e+05  2.540562e+03 -9.883917e+01  1.448432e+02  2.421268e+06 -6.706800e+05  7.206627e+00 -6.705307e+05 
    6300 -6.730676e+05  2.547645e+03  9.764115e+01  1.452470e+02  2.420913e+06 -6.703724e+05  7.207686e+00 -6.705200e+05 
    6350 -6.730684e+05  2.556148e+03 -8.412233e+01  1.457318e+02  2.421294e+06 -6.706394e+05  7.206551e+00 -6.705123e+05 
    6400 -6.730548e+05  2.544713e+03  6.256768e+01  1.450799e+02  2.420895e+06 -6.704156e+05  7.207739e+00 -6.705101e+05 
    6450 -6.730689e+05  2.558058e+03 -4.146365e+01  1.458407e+02  2.421080e+06 -6.705735e+05  7.207189e+00 -6.705108e+05 
    6500 -6.730604e+05  2.544010e+03  2.682367e+01  1.450398e+02  2.421041e+06 -6.704758e+05  7.207303e+00 -6.705164e+05 
    6550 -6.730743e+05  2.550337e+03 -1.815074e+01  1.454005e+02  2.421027e+06 -6.705514e+05  7.207344e+00 -6.705239e+05 
    6600 -6.730730e+05  2.540156e+03  1.232265e+01  1.448201e+02  2.420911e+06 -6.705142e+05  7.207690e+00 -6.705329e+05 
    6650 -6.730797e+05  2.540026e+03 -7.405370e+00  1.448126e+02  2.421057e+06 -6.705509e+05  7.207258e+00 -6.705397e+05 
    6700 -6.730839e+05  2.539361e+03  2.620264e+00  1.447747e+02  2.420930e+06 -6.705406e+05  7.207634e+00 -6.705446e+05 
    6750 -6.730837e+05  2.536110e+03  8.730465e+00  1.445894e+02  2.420952e+06 -6.705344e+05  7.207568e+00 -6.705476e+05 
    6800 -6.730858e+05  2.538403e+03 -3.571138e+01  1.447201e+02  2.421198e+06 -6.706013e+05  7.206837e+00 -6.705474e+05 
    6850 -6.730769e+05  2.533081e+03  7.617281e+01  1.444167e+02  2.421013e+06 -6.704287e+05  7.207386e+00 -6.705439e+05 
    6900 -6.730817e+05  2.544970e+03 -1.286647e+02  1.450945e+02  2.421317e+06 -6.707312e+05  7.206482e+00 -6.705368e+05 
    6950 -6.730663e+05  2.536783e+03  1.847642e+02  1.446278e+02  2.420666e+06 -6.702503e+05  7.208420e+00 -6.705295e+05 
    7000 -6.730741e+05  2.552162e+03 -2.191684e+02  1.455045e+02  2.421410e+06 -6.708532e+05  7.206206e+00 -6.705219e+05 
    7050 -6.730657e+05  2.547375e+03  2.075323e+02  1.452316e+02  2.420473e+06 -6.702048e+05  7.208996e+00 -6.705183e+05 
    7100 -6.730661e+05  2.549449e+03 -1.554760e+02  1.453499e+02  2.421267e+06 -6.707516e+05  7.206632e+00 -6.705167e+05 
    7150 -6.730690e+05  2.550953e+03  9.717269e+01  1.454356e+02  2.420814e+06 -6.703712e+05  7.207980e+00 -6.705180e+05 
    7200 -6.730741e+05  2.550817e+03 -5.662554e+01  1.454279e+02  2.421080e+06 -6.706089e+05  7.207187e+00 -6.705233e+05 
    7250 -6.730741e+05  2.543118e+03  3.187556e+01  1.449890e+02  2.420890e+06 -6.704828e+05  7.207753e+00 -6.705310e+05 
    7300 -6.730724e+05  2.534836e+03 -1.458346e+01  1.445168e+02  2.421068e+06 -6.705596e+05  7.207224e+00 -6.705376e+05 
    7350 -6.730875e+05  2.546476e+03 -1.004260e+00  1.451804e+02  2.421155e+06 -6.705425e+05  7.206964e+00 -6.705410e+05 
    7400 -6.730843e+05  2.539707e+03  2.014215e+01  1.447944e+02  2.421021e+06 -6.705142e+05  7.207363e+00 -6.705446e+05 
    7450 -6.730801e+05  2.533533e+03 -7.300596e+01  1.444424e+02  2.421173e+06 -6.706569e+05  7.206910e+00 -6.705466e+05 
    7500 -6.730848e+05  2.539933e+03  1.722272e+02  1.448074e+02  2.420625e+06 -6.702846e+05  7.208543e+00 -6.705448e+05 
    7550 -6.730870e+05  2.546321e+03 -2.236627e+02  1.451715e+02  2.421513e+06 -6.708787e+05  7.205900e+00 -6.705407e+05 
    7600 -6.730758e+05  2.538783e+03  2.050166e+02  1.447418e+02  2.420751e+06 -6.702272e+05  7.208168e+00 -6.705370e+05 
    7650 -6.730821e+05  2.549277e+03 -1.549792e+02  1.453401e+02  2.421300e+06 -6.707671e+05  7.206532e+00 -6.705329e+05 
    7700 -6.730744e+05  2.544118e+03  1.135879e+02  1.450460e+02  2.420696e+06 -6.703586e+05  7.208330e+00 -6.705302e+05 
    7750 -6.730765e+05  2.547794e+03 -8.560546e+01  1.452555e+02  2.421164e+06 -6.706580e+05  7.206938e+00 -6.705287e+05 
    7800 -6.730720e+05  2.542897e+03  6.542561e+01  1.449763e+02  2.420951e+06 -6.704303e+05  7.207573e+00 -6.705291e+05 
Loop time of 43.7821 on 30 procs for 2000 steps with 135696 atoms

Performance: 3.947 ns/day, 6.081 hours/ns, 45.681 timesteps/s
96.8% CPU use with 30 MPI tasks x no OpenMP threads

MPI task timing breakdown:
Section |  min time  |  avg time  |  max time  |%varavg| %total
---------------------------------------------------------------
Pair    | 40.099     | 41.067     | 42.608     |   9.7 | 93.80
Neigh   | 0.052352   | 0.053302   | 0.054969   |   0.2 |  0.12
Comm    | 0.46006    | 1.9591     | 2.9098     |  44.0 |  4.47
Output  | 0.23813    | 0.23817    | 0.23863    |   0.0 |  0.54
Modify  | 0.32653    | 0.37129    | 0.40728    |   4.1 |  0.85
Other   |            | 0.09347    |            |       |  0.21

Nlocal:        4523.20 ave        4538 max        4512 min
Histogram: 3 6 3 3 3 3 3 2 3 1
Nghost:        9517.33 ave       10131 max        9358 min
Histogram: 11 4 13 0 0 0 0 0 0 2
Neighs:       464453.0 ave      471490 max      457927 min
Histogram: 1 4 3 5 2 5 4 3 1 2

Total # of neighbors = 13933589
Ave neighs/atom = 102.68239
Neighbor list builds = 5
Dangerous builds = 0
	unfix	rest
	print 'Loop ${hloop}; succeeded temp ${Temp2} target ${T_heat}' append data/success.heat_msr
Loop 2; succeeded temp 145 target 1000
	variable Temp1 equal ${Temp2}
	variable Temp1 equal 145
	variable Temp2 equal ${Temp2}+${dT}
	variable Temp2 equal 145+${dT}
	variable Temp2 equal 145+47.5
next		hloop
jump		SELF l3
	fix     heat all npt temp ${Temp1} ${Temp2} 0.1 iso 0 0 0.1
	fix     heat all npt temp 145 ${Temp2} 0.1 iso 0 0 0.1
	fix     heat all npt temp 145 192.5 0.1 iso 0 0 0.1
	run	${ht_inter}
	run	1900
Per MPI rank memory allocation (min/avg/max) = 6.654 | 6.656 | 6.661 Mbytes
Step PotEng KinEng Press Temp Volume Enthalpy Density TotEng 
    7800 -6.730720e+05  2.542897e+03  6.542561e+01  1.449763e+02  2.420951e+06 -6.704303e+05  7.207573e+00 -6.705291e+05 
    7850 -6.730653e+05  2.538689e+03 -6.707222e+01  1.447364e+02  2.421124e+06 -6.706280e+05  7.207058e+00 -6.705266e+05 
    7900 -6.730770e+05  2.561922e+03  7.355209e+01  1.460610e+02  2.420722e+06 -6.704039e+05  7.208253e+00 -6.705151e+05 
    7950 -6.730631e+05  2.558801e+03 -9.179876e+01  1.458830e+02  2.421089e+06 -6.706430e+05  7.207160e+00 -6.705043e+05 
    8000 -6.730555e+05  2.568513e+03  1.154163e+02  1.464368e+02  2.420777e+06 -6.703126e+05  7.208090e+00 -6.704870e+05 
    8050 -6.730466e+05  2.580543e+03 -8.960905e+01  1.471226e+02  2.421322e+06 -6.706015e+05  7.206469e+00 -6.704661e+05 
    8100 -6.730318e+05  2.590665e+03  2.785897e+01  1.476997e+02  2.421070e+06 -6.703990e+05  7.207216e+00 -6.704411e+05 
    8150 -6.730187e+05  2.605295e+03  2.613427e+01  1.485338e+02  2.421007e+06 -6.703739e+05  7.207406e+00 -6.704134e+05 
    8200 -6.729979e+05  2.615663e+03 -5.927540e+01  1.491249e+02  2.421166e+06 -6.704718e+05  7.206931e+00 -6.703822e+05 
    8250 -6.729846e+05  2.636379e+03  7.780041e+01  1.503060e+02  2.420978e+06 -6.702307e+05  7.207491e+00 -6.703482e+05 
    8300 -6.729702e+05  2.657610e+03 -8.862851e+01  1.515164e+02  2.421429e+06 -6.704465e+05  7.206151e+00 -6.703126e+05 
    8350 -6.729457e+05  2.670691e+03  9.592438e+01  1.522621e+02  2.421148e+06 -6.701301e+05  7.206984e+00 -6.702750e+05 
    8400 -6.729294e+05  2.694389e+03 -1.003296e+02  1.536132e+02  2.421626e+06 -6.703866e+05  7.205563e+00 -6.702350e+05 
    8450 -6.728988e+05  2.705064e+03  1.037011e+02  1.542219e+02  2.421238e+06 -6.700370e+05  7.206719e+00 -6.701938e+05 
    8500 -6.728831e+05  2.732849e+03 -1.132309e+02  1.558059e+02  2.421701e+06 -6.703214e+05  7.205340e+00 -6.701503e+05 
    8550 -6.728671e+05  2.760868e+03  1.337531e+02  1.574034e+02  2.421341e+06 -6.699041e+05  7.206411e+00 -6.701062e+05 
    8600 -6.728337e+05  2.772735e+03 -1.571994e+02  1.580799e+02  2.422106e+06 -6.702986e+05  7.204135e+00 -6.700610e+05 
    8650 -6.728148e+05  2.800336e+03  1.588483e+02  1.596535e+02  2.421552e+06 -6.697744e+05  7.205782e+00 -6.700145e+05 
    8700 -6.727870e+05  2.820024e+03 -1.200235e+02  1.607759e+02  2.422162e+06 -6.701484e+05  7.203969e+00 -6.699670e+05 
    8750 -6.727717e+05  2.852848e+03  6.049264e+01  1.626473e+02  2.421734e+06 -6.698274e+05  7.205241e+00 -6.699188e+05 
    8800 -6.727347e+05  2.864262e+03 -1.508381e+01  1.632981e+02  2.421927e+06 -6.698932e+05  7.204668e+00 -6.698704e+05 
    8850 -6.727217e+05  2.901091e+03 -6.917161e+00  1.653978e+02  2.421980e+06 -6.698311e+05  7.204509e+00 -6.698206e+05 
    8900 -6.726849e+05  2.913607e+03  1.937130e+01  1.661114e+02  2.422046e+06 -6.697420e+05  7.204313e+00 -6.697713e+05 
    8950 -6.726639e+05  2.943553e+03 -3.095279e+01  1.678187e+02  2.422282e+06 -6.697672e+05  7.203611e+00 -6.697204e+05 
    9000 -6.726359e+05  2.966093e+03  4.547741e+01  1.691037e+02  2.422228e+06 -6.696010e+05  7.203773e+00 -6.696698e+05 
    9050 -6.726141e+05  2.995534e+03 -6.432211e+01  1.707822e+02  2.422550e+06 -6.697159e+05  7.202816e+00 -6.696186e+05 
    9100 -6.725910e+05  3.022896e+03  8.601597e+01  1.723422e+02  2.422289e+06 -6.694381e+05  7.203592e+00 -6.695681e+05 
    9150 -6.725549e+05  3.037381e+03 -1.059994e+02  1.731680e+02  2.422864e+06 -6.696778e+05  7.201881e+00 -6.695175e+05 
    9200 -6.725286e+05  3.063272e+03  1.247617e+02  1.746441e+02  2.422649e+06 -6.692767e+05  7.202519e+00 -6.694654e+05 
    9250 -6.725112e+05  3.097298e+03 -1.450916e+02  1.765840e+02  2.423255e+06 -6.696334e+05  7.200720e+00 -6.694139e+05 
    9300 -6.724836e+05  3.120273e+03  1.671024e+02  1.778938e+02  2.422517e+06 -6.691107e+05  7.202913e+00 -6.693633e+05 
    9350 -6.724563e+05  3.143510e+03 -1.913586e+02  1.792186e+02  2.423320e+06 -6.696023e+05  7.200527e+00 -6.693128e+05 
    9400 -6.724290e+05  3.166826e+03  2.193015e+02  1.805479e+02  2.422593e+06 -6.689306e+05  7.202688e+00 -6.692622e+05 
    9450 -6.723996e+05  3.188746e+03 -2.529369e+02  1.817976e+02  2.423597e+06 -6.695935e+05  7.199702e+00 -6.692109e+05 
    9500 -6.723821e+05  3.221553e+03  2.384012e+02  1.836680e+02  2.422571e+06 -6.688001e+05  7.202751e+00 -6.691605e+05 
    9550 -6.723481e+05  3.237554e+03 -1.480387e+02  1.845803e+02  2.423553e+06 -6.693345e+05  7.199835e+00 -6.691106e+05 
    9600 -6.723173e+05  3.257758e+03  8.064814e+01  1.857322e+02  2.423237e+06 -6.689375e+05  7.200773e+00 -6.690595e+05 
    9650 -6.723062e+05  3.297566e+03 -5.179796e+01  1.880017e+02  2.423570e+06 -6.690870e+05  7.199784e+00 -6.690087e+05 
    9700 -6.722736e+05  3.313593e+03  3.737349e+01  1.889154e+02  2.423368e+06 -6.689034e+05  7.200384e+00 -6.689600e+05 
Loop time of 41.5915 on 30 procs for 1900 steps with 135696 atoms

Performance: 3.947 ns/day, 6.081 hours/ns, 45.682 timesteps/s
96.9% CPU use with 30 MPI tasks x no OpenMP threads

MPI task timing breakdown:
Section |  min time  |  avg time  |  max time  |%varavg| %total
---------------------------------------------------------------
Pair    | 38.102     | 38.982     | 40.463     |   9.7 | 93.73
Neigh   | 0.052205   | 0.05329    | 0.054949   |   0.2 |  0.13
Comm    | 0.44482    | 1.8846     | 2.7431     |  43.7 |  4.53
Output  | 0.22705    | 0.22709    | 0.22754    |   0.0 |  0.55
Modify  | 0.31173    | 0.35469    | 0.38934    |   4.0 |  0.85
Other   |            | 0.08945    |            |       |  0.22

Nlocal:        4523.20 ave        4547 max        4509 min
Histogram: 3 5 4 5 3 5 3 0 1 1
Nghost:        9514.27 ave       10131 max        9364 min
Histogram: 11 8 9 0 0 0 0 0 0 2
Neighs:       463994.0 ave      472802 max      456122 min
Histogram: 1 2 5 3 4 8 3 3 0 1

Total # of neighbors = 13919832
Ave neighs/atom = 102.58100
Neighbor list builds = 5
Dangerous builds = 0
	write_restart data/restart.heat_msr
System init for write_restart ...
	unfix	heat
	fix	rest all npt temp ${Temp2} ${Temp2} 0.1 iso 0 0 0.1
	fix	rest all npt temp 192.5 ${Temp2} 0.1 iso 0 0 0.1
	fix	rest all npt temp 192.5 192.5 0.1 iso 0 0 0.1
	run     ${T1}
	run     2000
Per MPI rank memory allocation (min/avg/max) = 6.654 | 6.656 | 6.661 Mbytes
Step PotEng KinEng Press Temp Volume Enthalpy Density TotEng 
    9700 -6.722736e+05  3.313593e+03  3.737349e+01  1.889154e+02  2.423368e+06 -6.689034e+05  7.200384e+00 -6.689600e+05 
    9750 -6.722611e+05  3.315402e+03  3.341235e+01  1.890186e+02  2.423408e+06 -6.688951e+05  7.200264e+00 -6.689457e+05 
    9800 -6.722584e+05  3.330260e+03  2.037776e+01  1.898657e+02  2.423528e+06 -6.688973e+05  7.199908e+00 -6.689282e+05 
    9850 -6.722442e+05  3.335440e+03 -1.107736e+01  1.901610e+02  2.423617e+06 -6.689255e+05  7.199643e+00 -6.689087e+05 
    9900 -6.722387e+05  3.350812e+03 -8.244625e+01  1.910374e+02  2.423581e+06 -6.690126e+05  7.199750e+00 -6.688879e+05 
    9950 -6.722388e+05  3.368773e+03 -1.513012e+02  1.920614e+02  2.423647e+06 -6.690989e+05  7.199556e+00 -6.688701e+05 
   10000 -6.722105e+05  3.356047e+03 -1.635520e+02  1.913359e+02  2.423756e+06 -6.691019e+05  7.199230e+00 -6.688545e+05 
   10050 -6.722135e+05  3.374869e+03 -1.110956e+02  1.924089e+02  2.423781e+06 -6.690067e+05  7.199157e+00 -6.688387e+05 
   10100 -6.722032e+05  3.376480e+03 -1.102982e+01  1.925008e+02  2.423577e+06 -6.688435e+05  7.199762e+00 -6.688268e+05 
   10150 -6.721997e+05  3.382804e+03  9.438339e+01  1.928613e+02  2.423505e+06 -6.686741e+05  7.199977e+00 -6.688169e+05 
   10200 -6.721938e+05  3.383284e+03  1.590245e+02  1.928887e+02  2.423447e+06 -6.685700e+05  7.200149e+00 -6.688105e+05 
   10250 -6.721989e+05  3.390590e+03  1.535028e+02  1.933053e+02  2.423485e+06 -6.685761e+05  7.200036e+00 -6.688083e+05 
   10300 -6.722019e+05  3.389656e+03  9.192681e+01  1.932520e+02  2.423516e+06 -6.686732e+05  7.199944e+00 -6.688122e+05 
   10350 -6.721997e+05  3.377887e+03  2.240688e+01  1.925810e+02  2.423607e+06 -6.687879e+05  7.199675e+00 -6.688218e+05 
   10400 -6.722114e+05  3.379924e+03 -2.083458e+01  1.926972e+02  2.423430e+06 -6.688630e+05  7.200200e+00 -6.688315e+05 
   10450 -6.722169e+05  3.376203e+03 -4.181734e+01  1.924850e+02  2.423543e+06 -6.689040e+05  7.199864e+00 -6.688407e+05 
   10500 -6.722109e+05  3.363188e+03 -4.657184e+01  1.917430e+02  2.423735e+06 -6.689182e+05  7.199294e+00 -6.688478e+05 
   10550 -6.722203e+05  3.371112e+03 -3.898358e+01  1.921947e+02  2.423736e+06 -6.689082e+05  7.199290e+00 -6.688492e+05 
   10600 -6.722177e+05  3.370226e+03 -2.259787e+01  1.921442e+02  2.423620e+06 -6.688816e+05  7.199634e+00 -6.688475e+05 
   10650 -6.722204e+05  3.377881e+03  4.965773e+00  1.925806e+02  2.423466e+06 -6.688350e+05  7.200093e+00 -6.688425e+05 
   10700 -6.722201e+05  3.382605e+03  6.705237e+01  1.928500e+02  2.423390e+06 -6.687361e+05  7.200318e+00 -6.688375e+05 
   10750 -6.722071e+05  3.371928e+03  1.551492e+02  1.922413e+02  2.423262e+06 -6.686005e+05  7.200700e+00 -6.688351e+05 
   10800 -6.722090e+05  3.377452e+03  1.980832e+02  1.925562e+02  2.423379e+06 -6.685319e+05  7.200351e+00 -6.688315e+05 
   10850 -6.722091e+05  3.381984e+03  1.509950e+02  1.928146e+02  2.423541e+06 -6.685987e+05  7.199869e+00 -6.688271e+05 
   10900 -6.722029e+05  3.378515e+03  2.971778e+01  1.926168e+02  2.423663e+06 -6.687794e+05  7.199506e+00 -6.688243e+05 
   10950 -6.722106e+05  3.386614e+03 -8.797472e+01  1.930786e+02  2.423722e+06 -6.689571e+05  7.199332e+00 -6.688240e+05 
   11000 -6.722028e+05  3.375266e+03 -1.320618e+02  1.924316e+02  2.423870e+06 -6.690273e+05  7.198893e+00 -6.688275e+05 
   11050 -6.722065e+05  3.373778e+03 -1.060381e+02  1.923468e+02  2.423924e+06 -6.689932e+05  7.198732e+00 -6.688327e+05 
   11100 -6.722118e+05  3.373170e+03 -6.078306e+01  1.923121e+02  2.423810e+06 -6.689306e+05  7.199070e+00 -6.688387e+05 
   11150 -6.722234e+05  3.379573e+03 -2.107847e+01  1.926771e+02  2.423676e+06 -6.688757e+05  7.199467e+00 -6.688438e+05 
   11200 -6.722079e+05  3.357774e+03  1.235438e+01  1.914343e+02  2.423629e+06 -6.688314e+05  7.199608e+00 -6.688501e+05 
   11250 -6.722228e+05  3.371516e+03  4.082322e+01  1.922178e+02  2.423609e+06 -6.687895e+05  7.199667e+00 -6.688512e+05 
   11300 -6.722248e+05  3.377518e+03  6.661433e+01  1.925599e+02  2.423567e+06 -6.687465e+05  7.199791e+00 -6.688473e+05 
   11350 -6.722055e+05  3.368982e+03  1.303708e+02  1.920733e+02  2.423402e+06 -6.686393e+05  7.200283e+00 -6.688365e+05 
   11400 -6.722057e+05  3.381673e+03  1.325883e+02  1.927969e+02  2.423512e+06 -6.686235e+05  7.199956e+00 -6.688240e+05 
   11450 -6.722119e+05  3.391861e+03 -4.424778e+00  1.933777e+02  2.423623e+06 -6.688268e+05  7.199625e+00 -6.688201e+05 
   11500 -6.722018e+05  3.377931e+03 -1.351223e+02  1.925835e+02  2.423782e+06 -6.690283e+05  7.199154e+00 -6.688239e+05 
   11550 -6.722080e+05  3.379656e+03 -1.702305e+02  1.926818e+02  2.423933e+06 -6.690859e+05  7.198704e+00 -6.688283e+05 
   11600 -6.722084e+05  3.374676e+03 -1.348046e+02  1.923979e+02  2.423915e+06 -6.690376e+05  7.198759e+00 -6.688337e+05 
   11650 -6.722110e+05  3.372174e+03 -7.746530e+01  1.922553e+02  2.423842e+06 -6.689560e+05  7.198976e+00 -6.688389e+05 
   11700 -6.722141e+05  3.373016e+03 -1.854512e+01  1.923033e+02  2.423659e+06 -6.688691e+05  7.199520e+00 -6.688410e+05 
Loop time of 43.9501 on 30 procs for 2000 steps with 135696 atoms

Performance: 3.932 ns/day, 6.104 hours/ns, 45.506 timesteps/s
96.5% CPU use with 30 MPI tasks x no OpenMP threads

MPI task timing breakdown:
Section |  min time  |  avg time  |  max time  |%varavg| %total
---------------------------------------------------------------
Pair    | 40.108     | 41.086     | 42.774     |   9.7 | 93.48
Neigh   | 0.051947   | 0.05331    | 0.055045   |   0.2 |  0.12
Comm    | 0.45928    | 2.1052     | 3.0636     |  42.4 |  4.79
Output  | 0.23818    | 0.23821    | 0.23867    |   0.0 |  0.54
Modify  | 0.32813    | 0.37229    | 0.40882    |   4.1 |  0.85
Other   |            | 0.09496    |            |       |  0.22

Nlocal:        4523.20 ave        4539 max        4505 min
Histogram: 2 0 3 2 4 7 5 4 1 2
Nghost:        9515.80 ave       10133 max        9337 min
Histogram: 8 4 16 0 0 0 0 0 0 2
Neighs:       463953.0 ave      471312 max      458165 min
Histogram: 3 4 2 5 4 2 6 1 2 1

Total # of neighbors = 13918593
Ave neighs/atom = 102.57187
Neighbor list builds = 5
Dangerous builds = 0
	unfix	rest
	print 'Loop ${hloop}; succeeded temp ${Temp2} target ${T_heat}' append data/success.heat_msr
Loop 3; succeeded temp 192.5 target 1000
	variable Temp1 equal ${Temp2}
	variable Temp1 equal 192.5
	variable Temp2 equal ${Temp2}+${dT}
	variable Temp2 equal 192.5+${dT}
	variable Temp2 equal 192.5+47.5
next		hloop
jump		SELF l3
	fix     heat all npt temp ${Temp1} ${Temp2} 0.1 iso 0 0 0.1
	fix     heat all npt temp 192.5 ${Temp2} 0.1 iso 0 0 0.1
	fix     heat all npt temp 192.5 240 0.1 iso 0 0 0.1
	run	${ht_inter}
	run	1900
Per MPI rank memory allocation (min/avg/max) = 6.654 | 6.656 | 6.661 Mbytes
Step PotEng KinEng Press Temp Volume Enthalpy Density TotEng 
   11700 -6.722141e+05  3.373016e+03 -1.854512e+01  1.923033e+02  2.423659e+06 -6.688691e+05  7.199520e+00 -6.688410e+05 
   11750 -6.722125e+05  3.373798e+03 -1.614208e+01  1.923479e+02  2.423659e+06 -6.688631e+05  7.199520e+00 -6.688387e+05 
   11800 -6.722129e+05  3.387210e+03 -8.266498e+00  1.931125e+02  2.423675e+06 -6.688382e+05  7.199472e+00 -6.688257e+05 
   11850 -6.721989e+05  3.387569e+03  9.212277e+00  1.931330e+02  2.423778e+06 -6.687974e+05  7.199165e+00 -6.688113e+05 
   11900 -6.721900e+05  3.398000e+03  4.787606e+01  1.937277e+02  2.423675e+06 -6.687196e+05  7.199470e+00 -6.687920e+05 
   11950 -6.721826e+05  3.415118e+03  8.195416e+01  1.947036e+02  2.423617e+06 -6.686436e+05  7.199643e+00 -6.687675e+05 
   12000 -6.721637e+05  3.423852e+03  8.797044e+01  1.952016e+02  2.423628e+06 -6.686068e+05  7.199610e+00 -6.687398e+05 
   12050 -6.721424e+05  3.434120e+03  5.896657e+01  1.957870e+02  2.423632e+06 -6.686190e+05  7.199598e+00 -6.687082e+05 
   12100 -6.721425e+05  3.468645e+03 -1.286816e+01  1.977553e+02  2.423721e+06 -6.686934e+05  7.199334e+00 -6.686739e+05 
   12150 -6.721016e+05  3.463915e+03 -1.256432e+02  1.974856e+02  2.424155e+06 -6.688277e+05  7.198047e+00 -6.686376e+05 
   12200 -6.720913e+05  3.493390e+03 -2.323573e+02  1.991661e+02  2.424413e+06 -6.689495e+05  7.197281e+00 -6.685979e+05 
   12250 -6.720675e+05  3.511018e+03 -2.476502e+02  2.001711e+02  2.424584e+06 -6.689313e+05  7.196774e+00 -6.685565e+05 
   12300 -6.720523e+05  3.538548e+03 -1.360621e+02  2.017406e+02  2.424365e+06 -6.687196e+05  7.197422e+00 -6.685137e+05 
   12350 -6.720215e+05  3.552079e+03  3.181497e-01  2.025121e+02  2.424096e+06 -6.684690e+05  7.198222e+00 -6.684694e+05 
   12400 -6.719993e+05  3.575372e+03  4.922865e+01  2.038401e+02  2.424159e+06 -6.683494e+05  7.198032e+00 -6.684239e+05 
   12450 -6.719738e+05  3.597680e+03  6.149159e+01  2.051119e+02  2.424321e+06 -6.682831e+05  7.197552e+00 -6.683762e+05 
   12500 -6.719502e+05  3.621863e+03  6.072667e+01  2.064906e+02  2.424368e+06 -6.682364e+05  7.197414e+00 -6.683283e+05 
   12550 -6.719324e+05  3.652620e+03  4.346984e+01  2.082441e+02  2.424443e+06 -6.682140e+05  7.197190e+00 -6.682797e+05 
   12600 -6.719076e+05  3.676552e+03  6.211649e+00  2.096086e+02  2.424549e+06 -6.682216e+05  7.196877e+00 -6.682310e+05 
   12650 -6.718743e+05  3.692256e+03 -5.927788e+01  2.105039e+02  2.424756e+06 -6.682717e+05  7.196262e+00 -6.681820e+05 
   12700 -6.718529e+05  3.721442e+03 -1.546587e+02  2.121679e+02  2.425061e+06 -6.683655e+05  7.195356e+00 -6.681314e+05 
   12750 -6.718324e+05  3.750889e+03 -2.089148e+02  2.138467e+02  2.425314e+06 -6.683978e+05  7.194605e+00 -6.680815e+05 
   12800 -6.718049e+05  3.773262e+03 -1.446706e+02  2.151222e+02  2.425226e+06 -6.682506e+05  7.194866e+00 -6.680316e+05 
   12850 -6.717706e+05  3.789295e+03 -1.097557e+01  2.160363e+02  2.425079e+06 -6.679980e+05  7.195303e+00 -6.679813e+05 
   12900 -6.717544e+05  3.824190e+03  1.103076e+02  2.180258e+02  2.424884e+06 -6.677633e+05  7.195880e+00 -6.679302e+05 
   12950 -6.717258e+05  3.845781e+03  1.657851e+02  2.192567e+02  2.424824e+06 -6.676291e+05  7.196061e+00 -6.678800e+05 
   13000 -6.716821e+05  3.853571e+03  1.458497e+02  2.197008e+02  2.424978e+06 -6.676078e+05  7.195603e+00 -6.678285e+05 
   13050 -6.716644e+05  3.888520e+03  7.422849e+01  2.216933e+02  2.425334e+06 -6.676636e+05  7.194546e+00 -6.677759e+05 
   13100 -6.716543e+05  3.929265e+03 -2.846281e+00  2.240163e+02  2.425602e+06 -6.677294e+05  7.193753e+00 -6.677251e+05 
   13150 -6.716132e+05  3.937377e+03 -3.810247e+01  2.244788e+02  2.425734e+06 -6.677336e+05  7.193359e+00 -6.676759e+05 
   13200 -6.715856e+05  3.960705e+03 -3.981190e+01  2.258088e+02  2.425894e+06 -6.676852e+05  7.192887e+00 -6.676249e+05 
   13250 -6.715613e+05  3.987483e+03 -3.042409e+01  2.273354e+02  2.425966e+06 -6.676199e+05  7.192673e+00 -6.675738e+05 
   13300 -6.715406e+05  4.017363e+03 -1.423864e+01  2.290389e+02  2.425908e+06 -6.675448e+05  7.192843e+00 -6.675232e+05 
   13350 -6.715166e+05  4.042914e+03  6.309147e+00  2.304957e+02  2.426082e+06 -6.674642e+05  7.192328e+00 -6.674737e+05 
   13400 -6.714969e+05  4.071166e+03  4.445066e+01  2.321064e+02  2.426043e+06 -6.673584e+05  7.192445e+00 -6.674258e+05 
   13450 -6.714666e+05  4.088400e+03  1.218666e+02  2.330890e+02  2.425707e+06 -6.671937e+05  7.193440e+00 -6.673782e+05 
   13500 -6.714477e+05  4.117314e+03  1.240019e+02  2.347374e+02  2.425665e+06 -6.671427e+05  7.193564e+00 -6.673304e+05 
   13550 -6.714187e+05  4.135740e+03  3.878796e+01  2.357879e+02  2.426088e+06 -6.672242e+05  7.192310e+00 -6.672829e+05 
   13600 -6.713972e+05  4.161666e+03 -9.784528e+01  2.372660e+02  2.426602e+06 -6.673838e+05  7.190787e+00 -6.672356e+05 
Loop time of 41.751 on 30 procs for 1900 steps with 135696 atoms

Performance: 3.932 ns/day, 6.104 hours/ns, 45.508 timesteps/s
96.6% CPU use with 30 MPI tasks x no OpenMP threads

MPI task timing breakdown:
Section |  min time  |  avg time  |  max time  |%varavg| %total
---------------------------------------------------------------
Pair    | 38.004     | 38.988     | 40.616     |   9.4 | 93.38
Neigh   | 0.062258   | 0.063956   | 0.06575    |   0.3 |  0.15
Comm    | 0.4435     | 2.0322     | 2.9983     |  40.9 |  4.87
Output  | 0.22573    | 0.22576    | 0.22621    |   0.0 |  0.54
Modify  | 0.31031    | 0.35233    | 0.38701    |   3.9 |  0.84
Other   |            | 0.08918    |            |       |  0.21

Nlocal:        4523.20 ave        4549 max        4499 min
Histogram: 1 2 1 7 6 1 6 4 1 1
Nghost:        9510.50 ave       10101 max        9351 min
Histogram: 10 2 16 0 0 0 0 0 0 2
Neighs:       463486.0 ave      473186 max      455816 min
Histogram: 1 2 4 5 7 5 3 2 0 1

Total # of neighbors = 13904587
Ave neighs/atom = 102.46866
Neighbor list builds = 6
Dangerous builds = 0
	write_restart data/restart.heat_msr
System init for write_restart ...
	unfix	heat
	fix	rest all npt temp ${Temp2} ${Temp2} 0.1 iso 0 0 0.1
	fix	rest all npt temp 240 ${Temp2} 0.1 iso 0 0 0.1
	fix	rest all npt temp 240 240 0.1 iso 0 0 0.1
	run     ${T1}
	run     2000
Per MPI rank memory allocation (min/avg/max) = 6.654 | 6.657 | 6.661 Mbytes
Step PotEng KinEng Press Temp Volume Enthalpy Density TotEng 
   13600 -6.713972e+05  4.161666e+03 -9.784528e+01  2.372660e+02  2.426602e+06 -6.673838e+05  7.190787e+00 -6.672356e+05 
   13650 -6.713805e+05  4.158067e+03  1.017581e+02  2.370609e+02  2.426209e+06 -6.670683e+05  7.191952e+00 -6.672224e+05 
   13700 -6.713866e+05  4.181951e+03 -1.174146e+02  2.384225e+02  2.426579e+06 -6.673825e+05  7.190855e+00 -6.672047e+05 
   13750 -6.713586e+05  4.169011e+03  1.598200e+02  2.376848e+02  2.425982e+06 -6.669475e+05  7.192626e+00 -6.671895e+05 
   13800 -6.713573e+05  4.188900e+03 -2.449329e+02  2.388187e+02  2.426979e+06 -6.675395e+05  7.189669e+00 -6.671684e+05 
   13850 -6.713583e+05  4.206162e+03  2.781097e+02  2.398028e+02  2.426003e+06 -6.667310e+05  7.192563e+00 -6.671521e+05 
   13900 -6.713422e+05  4.203034e+03 -2.167128e+02  2.396245e+02  2.426941e+06 -6.674674e+05  7.189784e+00 -6.671392e+05 
   13950 -6.713292e+05  4.202661e+03  1.433541e+02  2.396032e+02  2.426005e+06 -6.669094e+05  7.192557e+00 -6.671265e+05 
   14000 -6.713304e+05  4.215609e+03 -9.244896e+01  2.403414e+02  2.426650e+06 -6.672548e+05  7.190646e+00 -6.671148e+05 
   14050 -6.713258e+05  4.218236e+03  5.473752e+01  2.404912e+02  2.426463e+06 -6.670247e+05  7.191200e+00 -6.671076e+05 
   14100 -6.713252e+05  4.220709e+03 -2.453710e+01  2.406322e+02  2.426671e+06 -6.671416e+05  7.190582e+00 -6.671045e+05 
   14150 -6.713192e+05  4.212728e+03  2.983881e-02  2.401772e+02  2.426643e+06 -6.671064e+05  7.190665e+00 -6.671065e+05 
   14200 -6.713383e+05  4.225778e+03  2.175987e+01  2.409212e+02  2.426440e+06 -6.670795e+05  7.191267e+00 -6.671125e+05 
   14250 -6.713287e+05  4.205539e+03 -4.287704e+01  2.397673e+02  2.426679e+06 -6.671881e+05  7.190560e+00 -6.671231e+05 
   14300 -6.713484e+05  4.215309e+03  6.539333e+01  2.403243e+02  2.426317e+06 -6.670340e+05  7.191633e+00 -6.671331e+05 
   14350 -6.713487e+05  4.207513e+03 -1.005655e+02  2.398799e+02  2.426634e+06 -6.672935e+05  7.190692e+00 -6.671412e+05 
   14400 -6.713555e+05  4.208494e+03  1.575594e+02  2.399358e+02  2.426026e+06 -6.669084e+05  7.192495e+00 -6.671470e+05 
   14450 -6.713486e+05  4.196197e+03 -2.289505e+02  2.392347e+02  2.426894e+06 -6.674992e+05  7.189921e+00 -6.671524e+05 
   14500 -6.713572e+05  4.204902e+03  2.698688e+02  2.397310e+02  2.425918e+06 -6.667437e+05  7.192816e+00 -6.671523e+05 
   14550 -6.713375e+05  4.190905e+03 -2.426451e+02  2.389330e+02  2.426959e+06 -6.675141e+05  7.189730e+00 -6.671466e+05 
   14600 -6.713407e+05  4.207705e+03  1.740027e+02  2.398908e+02  2.426084e+06 -6.668695e+05  7.192323e+00 -6.671330e+05 
   14650 -6.713437e+05  4.219870e+03 -1.238170e+02  2.405843e+02  2.426776e+06 -6.673114e+05  7.190271e+00 -6.671239e+05 
   14700 -6.713398e+05  4.216313e+03  1.007896e+02  2.403815e+02  2.426174e+06 -6.669708e+05  7.192057e+00 -6.671234e+05 
   14750 -6.713405e+05  4.213539e+03 -9.216100e+01  2.402234e+02  2.426630e+06 -6.672665e+05  7.190704e+00 -6.671269e+05 
   14800 -6.713343e+05  4.203602e+03  9.091308e+01  2.396569e+02  2.426311e+06 -6.669931e+05  7.191650e+00 -6.671307e+05 
   14850 -6.713516e+05  4.219308e+03 -9.427683e+01  2.405523e+02  2.426768e+06 -6.672751e+05  7.190295e+00 -6.671323e+05 
   14900 -6.713489e+05  4.210620e+03  1.003727e+02  2.400570e+02  2.426329e+06 -6.669863e+05  7.191596e+00 -6.671383e+05 
   14950 -6.713554e+05  4.206530e+03 -1.059007e+02  2.398238e+02  2.426727e+06 -6.673093e+05  7.190418e+00 -6.671489e+05 
   15000 -6.713573e+05  4.198278e+03  1.048407e+02  2.393534e+02  2.426451e+06 -6.670002e+05  7.191234e+00 -6.671590e+05 
   15050 -6.713554e+05  4.192416e+03 -8.953937e+01  2.390192e+02  2.426872e+06 -6.672986e+05  7.189988e+00 -6.671630e+05 
   15100 -6.713623e+05  4.202966e+03  6.267818e+01  2.396206e+02  2.426425e+06 -6.670644e+05  7.191310e+00 -6.671593e+05 
   15150 -6.713495e+05  4.195358e+03 -3.301255e+01  2.391869e+02  2.426555e+06 -6.672041e+05  7.190927e+00 -6.671541e+05 
   15200 -6.713524e+05  4.204077e+03  3.914850e+00  2.396840e+02  2.426468e+06 -6.671424e+05  7.191183e+00 -6.671483e+05 
   15250 -6.713489e+05  4.204732e+03  2.193460e+01  2.397213e+02  2.426541e+06 -6.671110e+05  7.190967e+00 -6.671442e+05 
   15300 -6.713469e+05  4.207082e+03 -4.574405e+01  2.398553e+02  2.426679e+06 -6.672091e+05  7.190560e+00 -6.671398e+05 
   15350 -6.713445e+05  4.210117e+03  6.424411e+01  2.400283e+02  2.426343e+06 -6.670371e+05  7.191554e+00 -6.671344e+05 
   15400 -6.713495e+05  4.218615e+03 -7.808237e+01  2.405128e+02  2.426422e+06 -6.672491e+05  7.191322e+00 -6.671309e+05 
   15450 -6.713414e+05  4.211589e+03  8.676526e+01  2.401122e+02  2.425938e+06 -6.669985e+05  7.192756e+00 -6.671298e+05 
   15500 -6.713444e+05  4.214434e+03 -9.091583e+01  2.402745e+02  2.426389e+06 -6.672677e+05  7.191419e+00 -6.671300e+05 
   15550 -6.713469e+05  4.211828e+03  9.308377e+01  2.401259e+02  2.426085e+06 -6.669941e+05  7.192320e+00 -6.671350e+05 
   15600 -6.713483e+05  4.203209e+03 -9.641621e+01  2.396345e+02  2.426559e+06 -6.672911e+05  7.190914e+00 -6.671451e+05 
Loop time of 44.1074 on 30 procs for 2000 steps with 135696 atoms

Performance: 3.918 ns/day, 6.126 hours/ns, 45.344 timesteps/s
96.6% CPU use with 30 MPI tasks x no OpenMP threads

MPI task timing breakdown:
Section |  min time  |  avg time  |  max time  |%varavg| %total
---------------------------------------------------------------
Pair    | 40.217     | 41.173     | 42.868     |  10.0 | 93.35
Neigh   | 0.093626   | 0.096006   | 0.098478   |   0.3 |  0.22
Comm    | 0.48246    | 2.1362     | 3.0683     |  43.4 |  4.84
Output  | 0.23732    | 0.23735    | 0.23782    |   0.0 |  0.54
Modify  | 0.3269     | 0.37129    | 0.40831    |   4.1 |  0.84
Other   |            | 0.09385    |            |       |  0.21

Nlocal:        4523.20 ave        4545 max        4501 min
Histogram: 1 1 4 4 3 7 4 3 1 2
Nghost:        9509.13 ave       10104 max        9350 min
Histogram: 11 2 15 0 0 0 0 0 0 2
Neighs:       463488.0 ave      472066 max      457367 min
Histogram: 3 2 6 3 5 5 3 1 1 1

Total # of neighbors = 13904637
Ave neighs/atom = 102.46903
Neighbor list builds = 9
Dangerous builds = 0
	unfix	rest
	print 'Loop ${hloop}; succeeded temp ${Temp2} target ${T_heat}' append data/success.heat_msr
Loop 4; succeeded temp 240 target 1000
	variable Temp1 equal ${Temp2}
	variable Temp1 equal 240
	variable Temp2 equal ${Temp2}+${dT}
	variable Temp2 equal 240+${dT}
	variable Temp2 equal 240+47.5
next		hloop
jump		SELF l3
	fix     heat all npt temp ${Temp1} ${Temp2} 0.1 iso 0 0 0.1
	fix     heat all npt temp 240 ${Temp2} 0.1 iso 0 0 0.1
	fix     heat all npt temp 240 287.5 0.1 iso 0 0 0.1
	run	${ht_inter}
	run	1900
Per MPI rank memory allocation (min/avg/max) = 6.654 | 6.657 | 6.661 Mbytes
Step PotEng KinEng Press Temp Volume Enthalpy Density TotEng 
   15600 -6.713483e+05  4.203209e+03 -9.641621e+01  2.396345e+02  2.426559e+06 -6.672911e+05  7.190914e+00 -6.671451e+05 
   15650 -6.713566e+05  4.215004e+03  1.011479e+02  2.403069e+02  2.426302e+06 -6.669885e+05  7.191676e+00 -6.671416e+05 
   15700 -6.713394e+05  4.211805e+03 -1.167497e+02  2.401246e+02  2.426874e+06 -6.673045e+05  7.189980e+00 -6.671276e+05 
   15750 -6.713359e+05  4.225609e+03  1.598242e+02  2.409116e+02  2.426233e+06 -6.668682e+05  7.191880e+00 -6.671102e+05 
   15800 -6.713184e+05  4.228495e+03 -2.432033e+02  2.410761e+02  2.427158e+06 -6.674584e+05  7.189139e+00 -6.670899e+05 
   15850 -6.713136e+05  4.249850e+03  2.711446e+02  2.422936e+02  2.426138e+06 -6.666532e+05  7.192163e+00 -6.670638e+05 
   15900 -6.712987e+05  4.264631e+03 -2.075756e+02  2.431363e+02  2.427102e+06 -6.673485e+05  7.189305e+00 -6.670340e+05 
   15950 -6.712835e+05  4.282350e+03  1.366012e+02  2.441465e+02  2.426381e+06 -6.667943e+05  7.191442e+00 -6.670012e+05 
   16000 -6.712643e+05  4.298471e+03 -8.661887e+01  2.450656e+02  2.426918e+06 -6.670970e+05  7.189852e+00 -6.669658e+05 
   16050 -6.712365e+05  4.308983e+03  4.973961e+01  2.456649e+02  2.426644e+06 -6.668522e+05  7.190664e+00 -6.669275e+05 
   16100 -6.712110e+05  4.325155e+03 -1.995016e+01  2.465869e+02  2.426985e+06 -6.669161e+05  7.189652e+00 -6.668858e+05 
   16150 -6.712052e+05  4.362678e+03 -4.823415e+00  2.487261e+02  2.427171e+06 -6.668498e+05  7.189103e+00 -6.668425e+05 
   16200 -6.711869e+05  4.387343e+03  2.831214e+01  2.501323e+02  2.427122e+06 -6.667567e+05  7.189246e+00 -6.667996e+05 
   16250 -6.711520e+05  4.397347e+03 -5.289436e+01  2.507027e+02  2.427214e+06 -6.668348e+05  7.188975e+00 -6.667547e+05 
   16300 -6.711238e+05  4.415944e+03  8.382816e+01  2.517630e+02  2.426970e+06 -6.665808e+05  7.189698e+00 -6.667078e+05 
   16350 -6.711058e+05  4.445952e+03 -1.397023e+02  2.534738e+02  2.427351e+06 -6.668715e+05  7.188568e+00 -6.666599e+05 
   16400 -6.710756e+05  4.464552e+03  2.253609e+02  2.545342e+02  2.426833e+06 -6.662697e+05  7.190102e+00 -6.666111e+05 
   16450 -6.710519e+05  4.490221e+03 -2.917181e+02  2.559977e+02  2.428044e+06 -6.670037e+05  7.186517e+00 -6.665616e+05 
   16500 -6.710261e+05  4.514533e+03  2.745197e+02  2.573838e+02  2.426872e+06 -6.660957e+05  7.189987e+00 -6.665116e+05 
   16550 -6.709923e+05  4.531923e+03 -1.947014e+02  2.583752e+02  2.428249e+06 -6.667554e+05  7.185911e+00 -6.664604e+05 
   16600 -6.709807e+05  4.571044e+03  1.345210e+02  2.606056e+02  2.427686e+06 -6.662058e+05  7.187577e+00 -6.664097e+05 
   16650 -6.709654e+05  4.605206e+03 -1.070845e+02  2.625532e+02  2.428096e+06 -6.665225e+05  7.186363e+00 -6.663602e+05 
   16700 -6.709108e+05  4.599663e+03  9.549882e+01  2.622372e+02  2.427716e+06 -6.661664e+05  7.187489e+00 -6.663111e+05 
   16750 -6.709134e+05  4.654056e+03 -8.993369e+01  2.653383e+02  2.427978e+06 -6.663956e+05  7.186712e+00 -6.662593e+05 
   16800 -6.708684e+05  4.658067e+03  8.705000e+01  2.655670e+02  2.427768e+06 -6.660785e+05  7.187335e+00 -6.662104e+05 
   16850 -6.708556e+05  4.695139e+03 -8.354132e+01  2.676805e+02  2.428378e+06 -6.662870e+05  7.185527e+00 -6.661604e+05 
   16900 -6.708256e+05  4.714688e+03  7.324389e+01  2.687951e+02  2.428225e+06 -6.659999e+05  7.185982e+00 -6.661109e+05 
   16950 -6.707938e+05  4.732334e+03 -4.683023e+01  2.698011e+02  2.428378e+06 -6.661324e+05  7.185529e+00 -6.660614e+05 
   17000 -6.707677e+05  4.756834e+03 -4.545347e+00  2.711979e+02  2.428279e+06 -6.660177e+05  7.185821e+00 -6.660108e+05 
   17050 -6.707500e+05  4.789092e+03  1.307948e+02  2.730370e+02  2.428090e+06 -6.657627e+05  7.186382e+00 -6.659609e+05 
   17100 -6.707171e+05  4.805673e+03 -2.127312e+02  2.739823e+02  2.428775e+06 -6.662339e+05  7.184353e+00 -6.659114e+05 
   17150 -6.707016e+05  4.839572e+03  1.491169e+02  2.759150e+02  2.428079e+06 -6.656360e+05  7.186414e+00 -6.658620e+05 
   17200 -6.706797e+05  4.864350e+03 -1.350103e+02  2.773276e+02  2.428746e+06 -6.660200e+05  7.184440e+00 -6.658154e+05 
   17250 -6.706408e+05  4.872291e+03  1.260906e+02  2.777804e+02  2.428522e+06 -6.655773e+05  7.185102e+00 -6.657685e+05 
   17300 -6.706140e+05  4.895595e+03 -1.193412e+02  2.791090e+02  2.429156e+06 -6.658993e+05  7.183228e+00 -6.657184e+05 
   17350 -6.706000e+05  4.930293e+03  1.152805e+02  2.810872e+02  2.428613e+06 -6.654949e+05  7.184834e+00 -6.656697e+05 
   17400 -6.705588e+05  4.937758e+03 -1.161437e+02  2.815128e+02  2.429076e+06 -6.657971e+05  7.183463e+00 -6.656210e+05 
   17450 -6.705391e+05  4.968275e+03  1.257634e+02  2.832526e+02  2.428793e+06 -6.653801e+05  7.184301e+00 -6.655708e+05 
   17500 -6.705222e+05  4.999823e+03 -1.481887e+02  2.850513e+02  2.429426e+06 -6.657471e+05  7.182428e+00 -6.655224e+05 
Loop time of 41.5735 on 30 procs for 1900 steps with 135696 atoms

Performance: 3.949 ns/day, 6.078 hours/ns, 45.702 timesteps/s
96.9% CPU use with 30 MPI tasks x no OpenMP threads

MPI task timing breakdown:
Section |  min time  |  avg time  |  max time  |%varavg| %total
---------------------------------------------------------------
Pair    | 37.819     | 39.004     | 40.392     |  11.1 | 93.82
Neigh   | 0.081181   | 0.082523   | 0.085254   |   0.3 |  0.20
Comm    | 0.47412    | 1.8271     | 3.0492     |  51.3 |  4.39
Output  | 0.22437    | 0.22441    | 0.22485    |   0.0 |  0.54
Modify  | 0.30883    | 0.34552    | 0.38044    |   3.4 |  0.83
Other   |            | 0.08957    |            |       |  0.22

Nlocal:        4523.20 ave        4543 max        4504 min
Histogram: 4 0 3 2 6 6 3 1 2 3
Nghost:        9510.90 ave       10111 max        9366 min
Histogram: 12 2 14 0 0 0 0 0 0 2
Neighs:       462965.0 ave      469755 max      456578 min
Histogram: 6 2 2 1 3 4 1 6 4 1

Total # of neighbors = 13888956
Ave neighs/atom = 102.35347
Neighbor list builds = 8
Dangerous builds = 0
	write_restart data/restart.heat_msr
System init for write_restart ...
	unfix	heat
	fix	rest all npt temp ${Temp2} ${Temp2} 0.1 iso 0 0 0.1
	fix	rest all npt temp 287.5 ${Temp2} 0.1 iso 0 0 0.1
	fix	rest all npt temp 287.5 287.5 0.1 iso 0 0 0.1
	run     ${T1}
	run     2000
Per MPI rank memory allocation (min/avg/max) = 6.657 | 6.659 | 6.664 Mbytes
Step PotEng KinEng Press Temp Volume Enthalpy Density TotEng 
   17500 -6.705222e+05  4.999823e+03 -1.481887e+02  2.850513e+02  2.429426e+06 -6.657471e+05  7.182428e+00 -6.655224e+05 
   17550 -6.705128e+05  5.002038e+03 -8.251022e+01  2.851775e+02  2.429318e+06 -6.656358e+05  7.182748e+00 -6.655107e+05 
   17600 -6.705033e+05  5.012390e+03  7.033971e+01  2.857677e+02  2.429045e+06 -6.653843e+05  7.183554e+00 -6.654909e+05 
   17650 -6.704896e+05  5.013177e+03  2.083464e+02  2.858126e+02  2.428878e+06 -6.651606e+05  7.184049e+00 -6.654764e+05 
   17700 -6.704951e+05  5.036845e+03  2.064486e+02  2.871620e+02  2.428799e+06 -6.651453e+05  7.184284e+00 -6.654583e+05 
   17750 -6.704669e+05  5.023713e+03 -1.295123e+02  2.864133e+02  2.429544e+06 -6.656396e+05  7.182081e+00 -6.654432e+05 
   17800 -6.704791e+05  5.050261e+03 -3.751192e+02  2.879268e+02  2.430197e+06 -6.659978e+05  7.180149e+00 -6.654288e+05 
   17850 -6.704489e+05  5.029916e+03 -1.785324e+02  2.867669e+02  2.429794e+06 -6.656897e+05  7.181340e+00 -6.654190e+05 
   17900 -6.704663e+05  5.058407e+03  2.700265e+01  2.883913e+02  2.429316e+06 -6.653670e+05  7.182755e+00 -6.654079e+05 
   17950 -6.704627e+05  5.059189e+03  1.414351e+02  2.884358e+02  2.429059e+06 -6.651891e+05  7.183513e+00 -6.654036e+05 
   18000 -6.704581e+05  5.050133e+03  1.259095e+02  2.879195e+02  2.428990e+06 -6.652171e+05  7.183717e+00 -6.654080e+05 
   18050 -6.704606e+05  5.043926e+03 -4.521297e+00  2.875657e+02  2.429404e+06 -6.654236e+05  7.182494e+00 -6.654167e+05 
   18100 -6.704733e+05  5.047392e+03 -1.471520e+02  2.877633e+02  2.429665e+06 -6.656491e+05  7.181722e+00 -6.654259e+05 
   18150 -6.704737e+05  5.037320e+03 -1.816866e+02  2.871890e+02  2.429752e+06 -6.657119e+05  7.181464e+00 -6.654364e+05 
   18200 -6.704821e+05  5.038800e+03 -3.048171e+01  2.872734e+02  2.429473e+06 -6.654896e+05  7.182289e+00 -6.654433e+05 
   18250 -6.704716e+05  5.025945e+03  2.667094e+02  2.865405e+02  2.428855e+06 -6.650413e+05  7.184117e+00 -6.654456e+05 
   18300 -6.704827e+05  5.041266e+03  3.812384e+02  2.874140e+02  2.428594e+06 -6.648636e+05  7.184889e+00 -6.654415e+05 
   18350 -6.704680e+05  5.035213e+03  9.007576e+01  2.870689e+02  2.429194e+06 -6.652962e+05  7.183115e+00 -6.654327e+05 
   18400 -6.704709e+05  5.053588e+03 -1.113616e+02  2.881165e+02  2.429629e+06 -6.655862e+05  7.181828e+00 -6.654174e+05 
   18450 -6.704508e+05  5.043833e+03 -1.218302e+02  2.875603e+02  2.429522e+06 -6.655917e+05  7.182144e+00 -6.654070e+05 
   18500 -6.704515e+05  5.047385e+03 -4.674072e+01  2.877629e+02  2.429171e+06 -6.654750e+05  7.183181e+00 -6.654041e+05 
   18550 -6.704595e+05  5.054825e+03  5.584699e+01  2.881870e+02  2.429244e+06 -6.653200e+05  7.182966e+00 -6.654047e+05 
   18600 -6.704674e+05  5.058100e+03  1.180011e+02  2.883738e+02  2.429264e+06 -6.652304e+05  7.182908e+00 -6.654093e+05 
   18650 -6.704623e+05  5.043643e+03  8.149879e+01  2.875495e+02  2.429229e+06 -6.652951e+05  7.183012e+00 -6.654187e+05 
   18700 -6.704783e+05  5.050451e+03 -7.997599e+01  2.879376e+02  2.429654e+06 -6.655492e+05  7.181754e+00 -6.654279e+05 
   18750 -6.704694e+05  5.032816e+03 -2.916513e+02  2.869323e+02  2.430160e+06 -6.658790e+05  7.180258e+00 -6.654366e+05 
   18800 -6.704689e+05  5.029867e+03 -2.451908e+02  2.867641e+02  2.430120e+06 -6.658110e+05  7.180378e+00 -6.654391e+05 
   18850 -6.704753e+05  5.038696e+03  8.338975e+01  2.872675e+02  2.429323e+06 -6.653102e+05  7.182733e+00 -6.654366e+05 
   18900 -6.704790e+05  5.047299e+03  2.460551e+02  2.877580e+02  2.428897e+06 -6.650587e+05  7.183992e+00 -6.654317e+05 
   18950 -6.704754e+05  5.047802e+03  1.672700e+02  2.877866e+02  2.429121e+06 -6.651740e+05  7.183330e+00 -6.654276e+05 
   19000 -6.704745e+05  5.049723e+03 -2.071145e+01  2.878962e+02  2.429471e+06 -6.654562e+05  7.182294e+00 -6.654248e+05 
   19050 -6.704676e+05  5.048088e+03 -1.736958e+02  2.878029e+02  2.429945e+06 -6.656829e+05  7.180895e+00 -6.654195e+05 
   19100 -6.704714e+05  5.058672e+03 -1.603728e+02  2.884063e+02  2.429911e+06 -6.656560e+05  7.180996e+00 -6.654128e+05 
   19150 -6.704663e+05  5.053785e+03 -5.000397e+00  2.881277e+02  2.429607e+06 -6.654201e+05  7.181893e+00 -6.654125e+05 
   19200 -6.704636e+05  5.045350e+03  1.530220e+02  2.876469e+02  2.429098e+06 -6.651862e+05  7.183399e+00 -6.654182e+05 
   19250 -6.704773e+05  5.050077e+03  1.741494e+02  2.879164e+02  2.429086e+06 -6.651632e+05  7.183433e+00 -6.654272e+05 
   19300 -6.704841e+05  5.044561e+03  3.637528e+01  2.876018e+02  2.429370e+06 -6.653844e+05  7.182594e+00 -6.654396e+05 
   19350 -6.704791e+05  5.030511e+03 -1.564046e+02  2.868008e+02  2.429687e+06 -6.656858e+05  7.181656e+00 -6.654486e+05 
   19400 -6.704928e+05  5.040831e+03 -2.367891e+02  2.873892e+02  2.429870e+06 -6.658111e+05  7.181118e+00 -6.654520e+05 
   19450 -6.704852e+05  5.032866e+03 -8.562567e+01  2.869351e+02  2.429488e+06 -6.655822e+05  7.182245e+00 -6.654524e+05 
   19500 -6.704968e+05  5.047754e+03  1.828457e+02  2.877839e+02  2.428732e+06 -6.651719e+05  7.184481e+00 -6.654491e+05 
Loop time of 43.5674 on 30 procs for 2000 steps with 135696 atoms

Performance: 3.966 ns/day, 6.051 hours/ns, 45.906 timesteps/s
97.1% CPU use with 30 MPI tasks x no OpenMP threads

MPI task timing breakdown:
Section |  min time  |  avg time  |  max time  |%varavg| %total
---------------------------------------------------------------
Pair    | 39.718     | 40.983     | 42.311     |  11.1 | 94.07
Neigh   | 0.098916   | 0.10061    | 0.10427    |   0.3 |  0.23
Comm    | 0.49466    | 1.7831     | 3.0754     |  52.9 |  4.09
Output  | 0.23673    | 0.23677    | 0.23723    |   0.0 |  0.54
Modify  | 0.32845    | 0.37002    | 0.40643    |   3.9 |  0.85
Other   |            | 0.09406    |            |       |  0.22

Nlocal:        4523.20 ave        4540 max        4510 min
Histogram: 2 3 5 6 0 6 2 2 0 4
Nghost:        9502.93 ave       10114 max        9355 min
Histogram: 12 7 9 0 0 0 0 0 0 2
Neighs:       463008.0 ave      468553 max      456001 min
Histogram: 5 3 1 1 3 1 0 6 6 4

Total # of neighbors = 13890234
Ave neighs/atom = 102.36288
Neighbor list builds = 10
Dangerous builds = 0
	unfix	rest
	print 'Loop ${hloop}; succeeded temp ${Temp2} target ${T_heat}' append data/success.heat_msr
Loop 5; succeeded temp 287.5 target 1000
	variable Temp1 equal ${Temp2}
	variable Temp1 equal 287.5
	variable Temp2 equal ${Temp2}+${dT}
	variable Temp2 equal 287.5+${dT}
	variable Temp2 equal 287.5+47.5
next		hloop
jump		SELF l3
	fix     heat all npt temp ${Temp1} ${Temp2} 0.1 iso 0 0 0.1
	fix     heat all npt temp 287.5 ${Temp2} 0.1 iso 0 0 0.1
	fix     heat all npt temp 287.5 335 0.1 iso 0 0 0.1
	run	${ht_inter}
	run	1900
Per MPI rank memory allocation (min/avg/max) = 6.657 | 6.659 | 6.664 Mbytes
Step PotEng KinEng Press Temp Volume Enthalpy Density TotEng 
   19500 -6.704968e+05  5.047754e+03  1.828457e+02  2.877839e+02  2.428732e+06 -6.651719e+05  7.184481e+00 -6.654491e+05 
   19550 -6.704857e+05  5.039368e+03  9.870207e+01  2.873058e+02  2.428772e+06 -6.652968e+05  7.184361e+00 -6.654464e+05 
   19600 -6.704798e+05  5.049266e+03 -8.232871e+01  2.878701e+02  2.429326e+06 -6.655554e+05  7.182724e+00 -6.654305e+05 
   19650 -6.704577e+05  5.047661e+03 -2.046581e+02  2.877786e+02  2.429770e+06 -6.657204e+05  7.181411e+00 -6.654100e+05 
   19700 -6.704530e+05  5.064787e+03 -1.531827e+02  2.887550e+02  2.429652e+06 -6.656205e+05  7.181761e+00 -6.653882e+05 
   19750 -6.704607e+05  5.099780e+03  9.647935e+01  2.907500e+02  2.429350e+06 -6.652146e+05  7.182652e+00 -6.653609e+05 
   19800 -6.704210e+05  5.090537e+03  3.497528e+02  2.902231e+02  2.428983e+06 -6.648003e+05  7.183738e+00 -6.653305e+05 
   19850 -6.704149e+05  5.119818e+03  2.412837e+02  2.918924e+02  2.429300e+06 -6.649293e+05  7.182800e+00 -6.652951e+05 
   19900 -6.703838e+05  5.125831e+03 -3.219528e+01  2.922353e+02  2.429925e+06 -6.653068e+05  7.180952e+00 -6.652580e+05 
   19950 -6.703783e+05  5.160620e+03 -1.335891e+02  2.942186e+02  2.430002e+06 -6.654203e+05  7.180727e+00 -6.652177e+05 
   20000 -6.703516e+05  5.175538e+03 -1.006339e+02  2.950691e+02  2.429954e+06 -6.653287e+05  7.180868e+00 -6.651761e+05 
   20050 -6.703169e+05  5.184391e+03 -3.534047e+00  2.955739e+02  2.429791e+06 -6.651379e+05  7.181350e+00 -6.651325e+05 
   20100 -6.702973e+05  5.211833e+03  9.007923e+01  2.971384e+02  2.429708e+06 -6.649489e+05  7.181596e+00 -6.650855e+05 
   20150 -6.702765e+05  5.238165e+03  1.176337e+02  2.986397e+02  2.429717e+06 -6.648599e+05  7.181568e+00 -6.650383e+05 
   20200 -6.702479e+05  5.258290e+03  3.911838e+01  2.997870e+02  2.430004e+06 -6.649303e+05  7.180720e+00 -6.649896e+05 
   20250 -6.702262e+05  5.285710e+03 -1.928664e+02  3.013503e+02  2.430627e+06 -6.652331e+05  7.178881e+00 -6.649405e+05 
   20300 -6.701920e+05  5.301698e+03 -4.348225e+02  3.022618e+02  2.431326e+06 -6.655501e+05  7.176817e+00 -6.648903e+05 
   20350 -6.701752e+05  5.335728e+03 -1.833021e+02  3.042019e+02  2.430825e+06 -6.651176e+05  7.178295e+00 -6.648395e+05 
   20400 -6.701567e+05  5.366488e+03  1.433795e+02  3.059556e+02  2.430069e+06 -6.645728e+05  7.180529e+00 -6.647902e+05 
   20450 -6.701142e+05  5.374571e+03  2.344254e+02  3.064165e+02  2.430009e+06 -6.643841e+05  7.180706e+00 -6.647397e+05 
   20500 -6.700977e+05  5.408994e+03  1.245813e+02  3.083790e+02  2.430455e+06 -6.644997e+05  7.179387e+00 -6.646887e+05 
   20550 -6.700711e+05  5.433745e+03 -4.179274e+01  3.097901e+02  2.430821e+06 -6.647008e+05  7.178306e+00 -6.646374e+05 
   20600 -6.700400e+05  5.452865e+03 -1.372691e+02  3.108802e+02  2.431176e+06 -6.647954e+05  7.177259e+00 -6.645871e+05 
   20650 -6.700263e+05  5.489871e+03 -1.088208e+02  3.129900e+02  2.431119e+06 -6.647015e+05  7.177428e+00 -6.645364e+05 
   20700 -6.699905e+05  5.502922e+03  2.685820e+00  3.137341e+02  2.430991e+06 -6.644835e+05  7.177805e+00 -6.644876e+05 
   20750 -6.699639e+05  5.526860e+03  1.235624e+02  3.150988e+02  2.430816e+06 -6.642495e+05  7.178321e+00 -6.644370e+05 
   20800 -6.699313e+05  5.545035e+03  1.858598e+02  3.161350e+02  2.430919e+06 -6.641043e+05  7.178017e+00 -6.643863e+05 
   20850 -6.699250e+05  5.589313e+03  7.029485e+01  3.186594e+02  2.431096e+06 -6.642290e+05  7.177494e+00 -6.643356e+05 
   20900 -6.698829e+05  5.594941e+03 -2.448774e+02  3.189803e+02  2.431648e+06 -6.646596e+05  7.175865e+00 -6.642879e+05 
   20950 -6.698529e+05  5.615395e+03 -3.460035e+02  3.201464e+02  2.432069e+06 -6.647627e+05  7.174624e+00 -6.642375e+05 
   21000 -6.698615e+05  5.672363e+03 -1.263410e+02  3.233943e+02  2.431630e+06 -6.643809e+05  7.175919e+00 -6.641891e+05 
   21050 -6.698059e+05  5.661928e+03  6.431006e+01  3.227994e+02  2.431120e+06 -6.640464e+05  7.177423e+00 -6.641439e+05 
   21100 -6.697831e+05  5.688581e+03  1.293928e+02  3.243189e+02  2.431070e+06 -6.638981e+05  7.177572e+00 -6.640945e+05 
   21150 -6.697802e+05  5.734541e+03  9.542070e+01  3.269392e+02  2.431351e+06 -6.639009e+05  7.176741e+00 -6.640457e+05 
   21200 -6.697378e+05  5.737577e+03 -9.907482e+00  3.271123e+02  2.431660e+06 -6.640152e+05  7.175830e+00 -6.640002e+05 
   21250 -6.697216e+05  5.768103e+03 -1.219497e+02  3.288526e+02  2.431934e+06 -6.641386e+05  7.175021e+00 -6.639535e+05 
   21300 -6.696878e+05  5.781766e+03 -1.535823e+02  3.296316e+02  2.432266e+06 -6.641392e+05  7.174043e+00 -6.639060e+05 
   21350 -6.696687e+05  5.810052e+03 -5.010625e+01  3.312443e+02  2.432149e+06 -6.639347e+05  7.174387e+00 -6.638587e+05 
   21400 -6.696431e+05  5.831597e+03  1.402051e+02  3.324725e+02  2.431729e+06 -6.635987e+05  7.175627e+00 -6.638115e+05 
Loop time of 41.3591 on 30 procs for 1900 steps with 135696 atoms

Performance: 3.969 ns/day, 6.047 hours/ns, 45.939 timesteps/s
97.3% CPU use with 30 MPI tasks x no OpenMP threads

MPI task timing breakdown:
Section |  min time  |  avg time  |  max time  |%varavg| %total
---------------------------------------------------------------
Pair    | 37.557     | 38.96      | 40.197     |  10.7 | 94.20
Neigh   | 0.10913    | 0.1107     | 0.11485    |   0.4 |  0.27
Comm    | 0.4249     | 1.6228     | 3.0524     |  52.1 |  3.92
Output  | 0.22467    | 0.22471    | 0.22516    |   0.0 |  0.54
Modify  | 0.31129    | 0.35143    | 0.38707    |   3.9 |  0.85
Other   |            | 0.08917    |            |       |  0.22

Nlocal:        4523.20 ave        4542 max        4499 min
Histogram: 1 0 1 3 9 3 6 1 5 1
Nghost:        9502.10 ave       10105 max        9351 min
Histogram: 10 6 12 0 0 0 0 0 0 2
Neighs:       462498.0 ave      469144 max      455477 min
Histogram: 3 4 4 0 2 2 3 6 3 3

Total # of neighbors = 13874936
Ave neighs/atom = 102.25015
Neighbor list builds = 11
Dangerous builds = 0
	write_restart data/restart.heat_msr
System init for write_restart ...
	unfix	heat
	fix	rest all npt temp ${Temp2} ${Temp2} 0.1 iso 0 0 0.1
	fix	rest all npt temp 335 ${Temp2} 0.1 iso 0 0 0.1
	fix	rest all npt temp 335 335 0.1 iso 0 0 0.1
	run     ${T1}
	run     2000
Per MPI rank memory allocation (min/avg/max) = 6.657 | 6.659 | 6.664 Mbytes
Step PotEng KinEng Press Temp Volume Enthalpy Density TotEng 
   21400 -6.696431e+05  5.831597e+03  1.402051e+02  3.324725e+02  2.431729e+06 -6.635987e+05  7.175627e+00 -6.638115e+05 
   21450 -6.696371e+05  5.836634e+03  1.257403e+02  3.327598e+02  2.431703e+06 -6.636096e+05  7.175704e+00 -6.638004e+05 
   21500 -6.696202e+05  5.842274e+03  7.932260e+01  3.330813e+02  2.431882e+06 -6.636575e+05  7.175173e+00 -6.637779e+05 
   21550 -6.696208e+05  5.857764e+03 -6.264147e+00  3.339644e+02  2.432048e+06 -6.637725e+05  7.174685e+00 -6.637630e+05 
   21600 -6.696127e+05  5.864572e+03 -1.905355e+02  3.343526e+02  2.432389e+06 -6.640374e+05  7.173680e+00 -6.637481e+05 
   21650 -6.695960e+05  5.863130e+03 -4.205190e+02  3.342703e+02  2.432894e+06 -6.643714e+05  7.172191e+00 -6.637328e+05 
   21700 -6.696002e+05  5.881480e+03 -3.931313e+02  3.353165e+02  2.432850e+06 -6.643157e+05  7.172319e+00 -6.637187e+05 
   21750 -6.695891e+05  5.880868e+03 -2.127197e+02  3.352816e+02  2.432441e+06 -6.640312e+05  7.173527e+00 -6.637083e+05 
   21800 -6.695933e+05  5.890111e+03 -7.915028e+01  3.358086e+02  2.432372e+06 -6.638233e+05  7.173729e+00 -6.637031e+05 
   21850 -6.695977e+05  5.891954e+03  3.146117e+01  3.359136e+02  2.432152e+06 -6.636579e+05  7.174378e+00 -6.637057e+05 
   21900 -6.696055e+05  5.888974e+03  1.215549e+02  3.357437e+02  2.431935e+06 -6.635321e+05  7.175018e+00 -6.637166e+05 
   21950 -6.695890e+05  5.858051e+03  1.782595e+02  3.339808e+02  2.431679e+06 -6.634604e+05  7.175772e+00 -6.637310e+05 
   22000 -6.695947e+05  5.859358e+03  1.872008e+02  3.340553e+02  2.431643e+06 -6.634512e+05  7.175881e+00 -6.637353e+05 
[...]
   72250 -6.569851e+05  1.668878e+04 -3.125800e+02  9.514654e+02  2.476887e+06 -6.407796e+05  7.044801e+00 -6.402964e+05 
   72300 -6.569701e+05  1.669809e+04  1.483604e+02  9.519962e+02  2.475920e+06 -6.400427e+05  7.047553e+00 -6.402720e+05 
   72350 -6.569300e+05  1.667639e+04  4.669028e+02  9.507591e+02  2.475649e+06 -6.395322e+05  7.048324e+00 -6.402536e+05 
   72400 -6.569444e+05  1.670519e+04 -5.600542e+02  9.524009e+02  2.477846e+06 -6.411054e+05  7.042075e+00 -6.402392e+05 
   72450 -6.569355e+05  1.670504e+04  9.048576e+01  9.523923e+02  2.476304e+06 -6.400906e+05  7.046462e+00 -6.402304e+05 
   72500 -6.569767e+05  1.675137e+04  3.043348e+02  9.550336e+02  2.475464e+06 -6.397551e+05  7.048852e+00 -6.402254e+05 
   72550 -6.569135e+05  1.667692e+04 -3.286992e+02  9.507890e+02  2.476909e+06 -6.407448e+05  7.044738e+00 -6.402366e+05 
   72600 -6.569813e+05  1.673470e+04  4.784880e+01  9.540833e+02  2.475880e+06 -6.401726e+05  7.047667e+00 -6.402466e+05 
   72650 -6.569392e+05  1.666874e+04  2.170331e+02  9.503226e+02  2.475764e+06 -6.399351e+05  7.047998e+00 -6.402705e+05 
   72700 -6.570196e+05  1.670984e+04 -2.558967e+02  9.526659e+02  2.476816e+06 -6.407053e+05  7.045004e+00 -6.403097e+05 
   72750 -6.569883e+05  1.663216e+04  1.728244e+01  9.482372e+02  2.476263e+06 -6.403294e+05  7.046577e+00 -6.403561e+05 
   72800 -6.570460e+05  1.667819e+04  2.130345e+02  9.508616e+02  2.475196e+06 -6.400386e+05  7.049614e+00 -6.403678e+05 
   72850 -6.570499e+05  1.668850e+04 -2.025496e+02  9.514490e+02  2.476301e+06 -6.406745e+05  7.046469e+00 -6.403614e+05 
   72900 -6.570402e+05  1.669709e+04  4.035230e+00  9.519391e+02  2.476065e+06 -6.403369e+05  7.047140e+00 -6.403431e+05 
   72950 -6.569950e+05  1.668936e+04  1.422451e+02  9.514984e+02  2.476346e+06 -6.400858e+05  7.046340e+00 -6.403056e+05 
   73000 -6.569339e+05  1.669158e+04 -1.318617e+02  9.516247e+02  2.477188e+06 -6.404462e+05  7.043947e+00 -6.402423e+05 
   73050 -6.569362e+05  1.673214e+04  9.336697e+00  9.539375e+02  2.476504e+06 -6.401896e+05  7.045891e+00 -6.402040e+05 
   73100 -6.568837e+05  1.668965e+04  1.762212e+02  9.515149e+02  2.476405e+06 -6.399217e+05  7.046173e+00 -6.401941e+05 
   73150 -6.569128e+05  1.672510e+04 -2.533510e+02  9.535359e+02  2.477229e+06 -6.405794e+05  7.043830e+00 -6.401877e+05 
   73200 -6.569079e+05  1.671782e+04 -5.030029e+01  9.531209e+02  2.476657e+06 -6.402678e+05  7.045457e+00 -6.401901e+05 
   73250 -6.569668e+05  1.676544e+04  5.167537e+02  9.558359e+02  2.475298e+06 -6.394030e+05  7.049325e+00 -6.402014e+05 
   73300 -6.569115e+05  1.667709e+04 -4.271957e+02  9.507985e+02  2.477494e+06 -6.408950e+05  7.043077e+00 -6.402344e+05 
   73350 -6.569336e+05  1.666936e+04 -8.838714e+01  9.503578e+02  2.476474e+06 -6.404008e+05  7.045976e+00 -6.402642e+05 
   73400 -6.569914e+05  1.670825e+04  3.329781e+02  9.525750e+02  2.475349e+06 -6.397687e+05  7.049179e+00 -6.402832e+05 
   73450 -6.569959e+05  1.669387e+04 -1.944947e+02  9.517555e+02  2.476281e+06 -6.406026e+05  7.046526e+00 -6.403020e+05 
   73500 -6.569796e+05  1.665045e+04 -9.002729e+01  9.492801e+02  2.476208e+06 -6.404683e+05  7.046734e+00 -6.403291e+05 
   73550 -6.570247e+05  1.666693e+04  2.814645e+02  9.502197e+02  2.475216e+06 -6.399229e+05  7.049559e+00 -6.403577e+05 
   73600 -6.570389e+05  1.665702e+04 -1.790658e+02  9.496546e+02  2.476385e+06 -6.406586e+05  7.046230e+00 -6.403818e+05 
   73650 -6.570127e+05  1.661947e+04 -1.290887e+02  9.475139e+02  2.476386e+06 -6.405928e+05  7.046227e+00 -6.403932e+05 
   73700 -6.570310e+05  1.666934e+04  3.416309e+02  9.503570e+02  2.475001e+06 -6.398339e+05  7.050171e+00 -6.403617e+05 
   73750 -6.569880e+05  1.667883e+04 -1.946935e+02  9.508977e+02  2.476575e+06 -6.406101e+05  7.045688e+00 -6.403091e+05 
   73800 -6.569809e+05  1.670974e+04 -1.900990e+02  9.526601e+02  2.476865e+06 -6.405650e+05  7.044864e+00 -6.402711e+05 
   73850 -6.569749e+05  1.672661e+04  4.268497e+02  9.536217e+02  2.475503e+06 -6.395888e+05  7.048741e+00 -6.402483e+05 
   73900 -6.568986e+05  1.666710e+04 -2.356936e+02  9.502293e+02  2.477083e+06 -6.405959e+05  7.044244e+00 -6.402315e+05 
   73950 -6.569541e+05  1.674902e+04 -3.896676e+02  9.548994e+02  2.477473e+06 -6.408076e+05  7.043136e+00 -6.402051e+05 
   74000 -6.569013e+05  1.670472e+04  5.604015e+02  9.523740e+02  2.475127e+06 -6.393309e+05  7.049810e+00 -6.401966e+05 
   74050 -6.569099e+05  1.671980e+04 -1.451144e+02  9.532337e+02  2.476973e+06 -6.404144e+05  7.044557e+00 -6.401901e+05 
   74100 -6.568388e+05  1.665770e+04 -1.800004e+02  9.496935e+02  2.476715e+06 -6.404593e+05  7.045292e+00 -6.401811e+05 
Loop time of 44.1258 on 30 procs for 2000 steps with 135696 atoms

Performance: 3.916 ns/day, 6.129 hours/ns, 45.325 timesteps/s
97.0% CPU use with 30 MPI tasks x no OpenMP threads

MPI task timing breakdown:
Section |  min time  |  avg time  |  max time  |%varavg| %total
---------------------------------------------------------------
Pair    | 39.612     | 41.245     | 42.633     |  12.0 | 93.47
Neigh   | 0.31985    | 0.32398    | 0.33506    |   0.5 |  0.73
Comm    | 0.50194    | 1.8633     | 3.5184     |  56.5 |  4.22
Output  | 0.23457    | 0.23461    | 0.2351     |   0.0 |  0.53
Modify  | 0.33447    | 0.3635     | 0.39831    |   3.2 |  0.82
Other   |            | 0.09487    |            |       |  0.22

Nlocal:        4523.20 ave        4554 max        4492 min
Histogram: 2 1 2 4 5 7 3 4 1 1
Nghost:        9425.03 ave       10055 max        9260 min
Histogram: 9 9 10 0 0 0 0 0 0 2
Neighs:       454448.0 ave      461740 max      445219 min
Histogram: 1 2 4 5 1 0 5 5 4 3

Total # of neighbors = 13633451
Ave neighs/atom = 100.47054
Neighbor list builds = 32
Dangerous builds = 0
	unfix	rest
	print 'Loop ${hloop}; succeeded temp ${Temp2} target ${T_heat}' append data/success.heat_msr
Loop 19; succeeded temp 952.5 target 1000
	variable Temp1 equal ${Temp2}
	variable Temp1 equal 952.5
	variable Temp2 equal ${Temp2}+${dT}
	variable Temp2 equal 952.5+${dT}
	variable Temp2 equal 952.5+47.5
next		hloop
jump		SELF l3
	fix     heat all npt temp ${Temp1} ${Temp2} 0.1 iso 0 0 0.1
	fix     heat all npt temp 952.5 ${Temp2} 0.1 iso 0 0 0.1
	fix     heat all npt temp 952.5 1000 0.1 iso 0 0 0.1
	run	${ht_inter}
	run	1900
Per MPI rank memory allocation (min/avg/max) = 6.658 | 6.660 | 6.665 Mbytes
Step PotEng KinEng Press Temp Volume Enthalpy Density TotEng 
   74100 -6.568388e+05  1.665770e+04 -1.800004e+02  9.496935e+02  2.476715e+06 -6.404593e+05  7.045292e+00 -6.401811e+05 
   74150 -6.569237e+05  1.675374e+04  1.033050e+02  9.551685e+02  2.475984e+06 -6.400103e+05  7.047370e+00 -6.401700e+05 
   74200 -6.568332e+05  1.668372e+04  1.220579e+02  9.511767e+02  2.476234e+06 -6.399608e+05  7.046660e+00 -6.401495e+05 
   74250 -6.568334e+05  1.674079e+04 -3.423413e+02  9.544307e+02  2.477742e+06 -6.406220e+05  7.042371e+00 -6.400926e+05 
   74300 -6.568157e+05  1.676791e+04  2.795306e+02  9.559763e+02  2.476458e+06 -6.396158e+05  7.046023e+00 -6.400478e+05 
   74350 -6.568367e+05  1.681151e+04  3.633590e+02  9.584622e+02  2.476078e+06 -6.394637e+05  7.047103e+00 -6.400252e+05 
   74400 -6.568063e+05  1.680263e+04 -5.979302e+02  9.579561e+02  2.478292e+06 -6.409286e+05  7.040809e+00 -6.400037e+05 
   74450 -6.567708e+05  1.680262e+04  2.046590e+02  9.579552e+02  2.476475e+06 -6.396518e+05  7.045973e+00 -6.399682e+05 
   74500 -6.567870e+05  1.686592e+04  1.929721e+02  9.615645e+02  2.476463e+06 -6.396228e+05  7.046009e+00 -6.399211e+05 
   74550 -6.567036e+05  1.682191e+04 -3.437798e+02  9.590552e+02  2.477517e+06 -6.404133e+05  7.043011e+00 -6.398817e+05 
   74600 -6.567710e+05  1.693274e+04  1.287987e+02  9.653740e+02  2.476609e+06 -6.396391e+05  7.045594e+00 -6.398382e+05 
   74650 -6.566643e+05  1.685899e+04  1.829738e+02  9.611694e+02  2.476608e+06 -6.395225e+05  7.045595e+00 -6.398053e+05 
   74700 -6.566648e+05  1.690781e+04 -2.584308e+02  9.639524e+02  2.477645e+06 -6.401566e+05  7.042647e+00 -6.397570e+05 
   74750 -6.565876e+05  1.688257e+04  7.025631e+01  9.625135e+02  2.477310e+06 -6.395964e+05  7.043599e+00 -6.397051e+05 
   74800 -6.566133e+05  1.696372e+04  1.602904e+02  9.671400e+02  2.477108e+06 -6.394017e+05  7.044175e+00 -6.396496e+05 
   74850 -6.565789e+05  1.697717e+04 -2.715145e+02  9.679072e+02  2.478149e+06 -6.400217e+05  7.041214e+00 -6.396017e+05 
   74900 -6.565168e+05  1.696721e+04  1.030323e+02  9.673391e+02  2.477269e+06 -6.393903e+05  7.043715e+00 -6.395496e+05 
   74950 -6.565346e+05  1.704812e+04  4.027287e+02  9.719519e+02  2.476908e+06 -6.388639e+05  7.044743e+00 -6.394865e+05 
   75000 -6.565039e+05  1.706620e+04 -5.963188e+02  9.729828e+02  2.479145e+06 -6.403604e+05  7.038386e+00 -6.394377e+05 
   75050 -6.564946e+05  1.709858e+04  1.180819e+02  9.748287e+02  2.477872e+06 -6.392134e+05  7.042001e+00 -6.393960e+05 
   75100 -6.564186e+05  1.706968e+04  2.253881e+02  9.731814e+02  2.477589e+06 -6.390003e+05  7.042807e+00 -6.393489e+05 
   75150 -6.563961e+05  1.710690e+04 -2.040208e+02  9.753029e+02  2.478559e+06 -6.396048e+05  7.040049e+00 -6.392892e+05 
   75200 -6.563523e+05  1.711842e+04  3.216397e+01  9.759601e+02  2.478378e+06 -6.391842e+05  7.040563e+00 -6.392339e+05 
   75250 -6.562996e+05  1.712744e+04  1.390642e+02  9.764740e+02  2.478278e+06 -6.389571e+05  7.040848e+00 -6.391722e+05 
   75300 -6.563023e+05  1.719138e+04 -1.836140e+02  9.801193e+02  2.479053e+06 -6.393950e+05  7.038647e+00 -6.391109e+05 
   75350 -6.562545e+05  1.719822e+04  1.621484e+01  9.805095e+02  2.478704e+06 -6.390312e+05  7.039638e+00 -6.390563e+05 
   75400 -6.562105e+05  1.720885e+04  2.176301e+02  9.811153e+02  2.478601e+06 -6.386650e+05  7.039931e+00 -6.390016e+05 
   75450 -6.561576e+05  1.721608e+04 -3.055110e+02  9.815278e+02  2.479527e+06 -6.394144e+05  7.037300e+00 -6.389416e+05 
   75500 -6.561191e+05  1.723940e+04  2.245315e+01  9.828571e+02  2.478810e+06 -6.388450e+05  7.039338e+00 -6.388797e+05 
   75550 -6.560789e+05  1.726610e+04  4.003811e+02  9.843798e+02  2.478175e+06 -6.381935e+05  7.041141e+00 -6.388128e+05 
   75600 -6.561005e+05  1.735134e+04 -5.407485e+02  9.892392e+02  2.480455e+06 -6.395863e+05  7.034668e+00 -6.387491e+05 
   75650 -6.560876e+05  1.738124e+04  4.253610e+01  9.909437e+02  2.479388e+06 -6.386406e+05  7.037697e+00 -6.387064e+05 
   75700 -6.560399e+05  1.737483e+04  5.802474e+02  9.905783e+02  2.477955e+06 -6.377677e+05  7.041765e+00 -6.386651e+05 
   75750 -6.560032e+05  1.738920e+04 -3.690999e+02  9.913975e+02  2.480280e+06 -6.391854e+05  7.035165e+00 -6.386140e+05 
   75800 -6.559380e+05  1.737515e+04  2.555429e+01  9.905967e+02  2.479762e+06 -6.385233e+05  7.036633e+00 -6.385629e+05 
   75850 -6.559418e+05  1.743494e+04  1.705133e+02  9.940055e+02  2.479426e+06 -6.382430e+05  7.037587e+00 -6.385068e+05 
   75900 -6.559127e+05  1.746142e+04 -1.765896e+02  9.955149e+02  2.480185e+06 -6.387246e+05  7.035435e+00 -6.384513e+05 
   75950 -6.558956e+05  1.749468e+04  2.464024e+01  9.974116e+02  2.479711e+06 -6.383628e+05  7.036780e+00 -6.384009e+05 
   76000 -6.558263e+05  1.747492e+04  1.599752e+02  9.962845e+02  2.479538e+06 -6.381038e+05  7.037271e+00 -6.383514e+05 
Loop time of 42.0161 on 30 procs for 1900 steps with 135696 atoms

Performance: 3.907 ns/day, 6.143 hours/ns, 45.221 timesteps/s
96.9% CPU use with 30 MPI tasks x no OpenMP threads

MPI task timing breakdown:
Section |  min time  |  avg time  |  max time  |%varavg| %total
---------------------------------------------------------------
Pair    | 37.717     | 39.175     | 40.599     |  11.8 | 93.24
Neigh   | 0.30984    | 0.31376    | 0.32362    |   0.5 |  0.75
Comm    | 0.46018    | 1.8498     | 3.3362     |  54.3 |  4.40
Output  | 0.24051    | 0.24054    | 0.24102    |   0.0 |  0.57
Modify  | 0.30967    | 0.3474     | 0.38241    |   3.7 |  0.83
Other   |            | 0.08925    |            |       |  0.21

Nlocal:        4523.20 ave        4554 max        4497 min
Histogram: 2 3 3 5 2 8 2 1 3 1
Nghost:        9416.53 ave       10030 max        9260 min
Histogram: 11 9 8 0 0 0 0 0 0 2
Neighs:       453785.0 ave      461131 max      445083 min
Histogram: 2 2 1 5 2 3 8 1 5 1

Total # of neighbors = 13613543
Ave neighs/atom = 100.32383
Neighbor list builds = 31
Dangerous builds = 0
	write_restart data/restart.heat_msr
System init for write_restart ...
	unfix	heat
	fix	rest all npt temp ${Temp2} ${Temp2} 0.1 iso 0 0 0.1
	fix	rest all npt temp 1000 ${Temp2} 0.1 iso 0 0 0.1
	fix	rest all npt temp 1000 1000 0.1 iso 0 0 0.1
	run     ${T1}
	run     2000
Per MPI rank memory allocation (min/avg/max) = 6.658 | 6.660 | 6.665 Mbytes
Step PotEng KinEng Press Temp Volume Enthalpy Density TotEng 
   76000 -6.558263e+05  1.747492e+04  1.599752e+02  9.962845e+02  2.479538e+06 -6.381038e+05  7.037271e+00 -6.383514e+05 
   76050 -6.558315e+05  1.749351e+04 -9.283177e+01  9.973446e+02  2.480163e+06 -6.384817e+05  7.035497e+00 -6.383380e+05 
   76100 -6.557803e+05  1.748440e+04 -3.717800e+01  9.968255e+02  2.480700e+06 -6.383534e+05  7.033974e+00 -6.382959e+05 
   76150 -6.557490e+05  1.750653e+04  2.294064e+02  9.980867e+02  2.480180e+06 -6.378873e+05  7.035447e+00 -6.382424e+05 
   76200 -6.557404e+05  1.752935e+04 -4.399646e+02  9.993881e+02  2.482041e+06 -6.388926e+05  7.030172e+00 -6.382110e+05 
   76250 -6.557984e+05  1.759907e+04  3.045594e+02  1.003363e+03  2.479886e+06 -6.377279e+05  7.036281e+00 -6.381993e+05 
   76300 -6.557621e+05  1.755173e+04  1.042541e+02  1.000664e+03  2.480220e+06 -6.380489e+05  7.035335e+00 -6.382103e+05 
   76350 -6.557684e+05  1.753891e+04 -3.768995e+02  9.999331e+02  2.481382e+06 -6.388132e+05  7.032039e+00 -6.382295e+05 
   76400 -6.557657e+05  1.751705e+04  3.757554e+02  9.986867e+02  2.479397e+06 -6.376672e+05  7.037671e+00 -6.382487e+05 
   76450 -6.557627e+05  1.750308e+04 -1.865498e+02  9.978903e+02  2.480606e+06 -6.385484e+05  7.034240e+00 -6.382596e+05 
   76500 -6.558231e+05  1.756322e+04 -3.717988e+01  1.001319e+03  2.480483e+06 -6.383175e+05  7.034589e+00 -6.382599e+05 
   76550 -6.558240e+05  1.756065e+04  2.104287e+02  1.001173e+03  2.480095e+06 -6.379376e+05  7.035689e+00 -6.382634e+05 
   76600 -6.557685e+05  1.748759e+04 -2.345300e+02  9.970073e+02  2.480797e+06 -6.386440e+05  7.033699e+00 -6.382809e+05 
   76650 -6.558357e+05  1.754105e+04  1.410541e+02  1.000055e+03  2.479741e+06 -6.380763e+05  7.036693e+00 -6.382947e+05 
   76700 -6.557745e+05  1.746483e+04 -2.841020e+00  9.957093e+02  2.480523e+06 -6.383141e+05  7.034476e+00 -6.383097e+05 
   76750 -6.558101e+05  1.751333e+04 -6.614123e+01  9.984746e+02  2.480569e+06 -6.383992e+05  7.034347e+00 -6.382968e+05 
   76800 -6.557978e+05  1.753770e+04  6.335987e+01  9.998640e+02  2.480384e+06 -6.381620e+05  7.034870e+00 -6.382601e+05 
   76850 -6.557078e+05  1.749310e+04 -3.892406e+01  9.973211e+02  2.480552e+06 -6.382750e+05  7.034394e+00 -6.382147e+05 
   76900 -6.557393e+05  1.756524e+04 -9.464141e+00  1.001434e+03  2.480488e+06 -6.381887e+05  7.034576e+00 -6.381740e+05 
   76950 -6.557199e+05  1.756126e+04  7.819141e+01  1.001207e+03  2.480411e+06 -6.380376e+05  7.034794e+00 -6.381586e+05 
   77000 -6.557040e+05  1.754796e+04 -1.195209e+02  1.000449e+03  2.481135e+06 -6.383411e+05  7.032741e+00 -6.381560e+05 
   77050 -6.557520e+05  1.758842e+04  1.175464e+02  1.002756e+03  2.480171e+06 -6.379816e+05  7.035473e+00 -6.381636e+05 
   77100 -6.556832e+05  1.749693e+04  4.850086e+01  9.975395e+02  2.480474e+06 -6.381112e+05  7.034615e+00 -6.381863e+05 
   77150 -6.556864e+05  1.749053e+04 -2.805624e+02  9.971745e+02  2.481299e+06 -6.386304e+05  7.032276e+00 -6.381959e+05 
   77200 -6.557463e+05  1.755800e+04  3.782544e+02  1.001022e+03  2.479584e+06 -6.376029e+05  7.037140e+00 -6.381883e+05 
   77250 -6.557455e+05  1.757252e+04 -2.359478e+02  1.001849e+03  2.480975e+06 -6.385384e+05  7.033194e+00 -6.381730e+05 
   77300 -6.557133e+05  1.755472e+04 -6.012838e+01  1.000835e+03  2.480884e+06 -6.382517e+05  7.033452e+00 -6.381586e+05 
   77350 -6.556945e+05  1.754770e+04  3.014389e+02  1.000434e+03  2.479838e+06 -6.376802e+05  7.036418e+00 -6.381468e+05 
   77400 -6.556734e+05  1.753724e+04 -3.552426e+02  9.998376e+02  2.481548e+06 -6.386864e+05  7.031570e+00 -6.381362e+05 
   77450 -6.556897e+05  1.755858e+04  1.788310e+02  1.001054e+03  2.480065e+06 -6.378543e+05  7.035775e+00 -6.381311e+05 
   77500 -6.556864e+05  1.755543e+04  1.039751e+01  1.000875e+03  2.480695e+06 -6.381149e+05  7.033987e+00 -6.381310e+05 
   77550 -6.556773e+05  1.754026e+04 -1.076052e+02  1.000010e+03  2.480903e+06 -6.383036e+05  7.033398e+00 -6.381370e+05 
   77600 -6.557127e+05  1.755836e+04  1.154279e+02  1.001042e+03  2.480329e+06 -6.379757e+05  7.035025e+00 -6.381544e+05 
   77650 -6.556986e+05  1.751364e+04 -9.068884e+01  9.984925e+02  2.480965e+06 -6.383253e+05  7.033222e+00 -6.381849e+05 
   77700 -6.557550e+05  1.753880e+04 -6.515471e+00  9.999267e+02  2.480231e+06 -6.382263e+05  7.035304e+00 -6.382162e+05 
   77750 -6.557118e+05  1.747142e+04  1.377057e+02  9.960850e+02  2.480119e+06 -6.380272e+05  7.035622e+00 -6.382403e+05 
   77800 -6.557337e+05  1.749483e+04 -3.358231e+02  9.974200e+02  2.481439e+06 -6.387589e+05  7.031878e+00 -6.382388e+05 
   77850 -6.557371e+05  1.752630e+04  3.084256e+02  9.992141e+02  2.479973e+06 -6.377334e+05  7.036036e+00 -6.382108e+05 
   77900 -6.557055e+05  1.755563e+04  5.851908e+01  1.000886e+03  2.480454e+06 -6.380593e+05  7.034672e+00 -6.381499e+05 
   77950 -6.557178e+05  1.760599e+04 -3.656974e+02  1.003757e+03  2.481172e+06 -6.386781e+05  7.032635e+00 -6.381118e+05 
   78000 -6.556251e+05  1.751590e+04  3.686669e+02  9.986210e+02  2.479893e+06 -6.375386e+05  7.036264e+00 -6.381092e+05 
Loop time of 44.1113 on 30 procs for 2000 steps with 135696 atoms

Performance: 3.917 ns/day, 6.127 hours/ns, 45.340 timesteps/s
97.1% CPU use with 30 MPI tasks x no OpenMP threads

MPI task timing breakdown:
Section |  min time  |  avg time  |  max time  |%varavg| %total
---------------------------------------------------------------
Pair    | 39.815     | 41.257     | 42.601     |  12.0 | 93.53
Neigh   | 0.33069    | 0.33467    | 0.34637    |   0.5 |  0.76
Comm    | 0.49309    | 1.8034     | 3.2715     |  57.4 |  4.09
Output  | 0.25774    | 0.25777    | 0.25825    |   0.0 |  0.58
Modify  | 0.32692    | 0.36384    | 0.40037    |   3.7 |  0.82
Other   |            | 0.09432    |            |       |  0.21

Nlocal:        4523.20 ave        4550 max        4499 min
Histogram: 3 1 2 5 8 2 4 1 2 2
Nghost:        9414.93 ave       10025 max        9262 min
Histogram: 11 6 11 0 0 0 0 0 0 2
Neighs:       453423.0 ave      460676 max      445939 min
Histogram: 3 5 2 0 3 2 6 5 2 2

Total # of neighbors = 13602679
Ave neighs/atom = 100.24377
Neighbor list builds = 33
Dangerous builds = 0
	unfix	rest
	print 'Loop ${hloop}; succeeded temp ${Temp2} target ${T_heat}' append data/success.heat_msr
Loop 20; succeeded temp 1000 target 1000
	variable Temp1 equal ${Temp2}
	variable Temp1 equal 1000
	variable Temp2 equal ${Temp2}+${dT}
	variable Temp2 equal 1000+${dT}
	variable Temp2 equal 1000+47.5
next		hloop
jump		SELF l3

#variable	st equal $(step)
#variable	et equal $(step)+${ht}
#fix     	heat all npt temp ${T_cool} ${T_heat} 0.1 iso 0 0 0.1
#run		${ht} #start ${st} stop ${et} every ${ht_inter} "write_restart data/restart.heat_msr" 		#	"print 'succeeded step $(step); target ${tstop}' append data/success.heat_msr"
#write_restart 	data/restart.heat_msr

#--------------------------------------------------------------------------------OUTPUT
variable        clusfile string "data/data.msr_dsc"               #output to save progress and to allow import to future simulations
variable        reclusfile string "data/restart.msr_dsc"
write_data      ${clusfile}
write_data      data/data.msr_dsc
System init for write_data ...
write_restart   ${reclusfile}
write_restart   data/restart.msr_dsc
System init for write_restart ...
Total wall time: 0:28:33
