LAMMPS (29 Oct 2020)
##################################################################
##IN.CLUSTER_ANNEAL_DATA					##
##Anneal and segregate already prepared amorphous cluster	##
##Dependencies	: none						##
##Influences: /data						##
##################################################################
## ver. : 2020-07-17, Syamal Praneeth Chilakalapudi, KIT, INT	##
##Author Email    :syamalpraneeth@gmail.com			##
##################################################################

#--------------------------------------------------------------VARIABLES FROM COMMAND LINE
variable        pot string ${args}
variable        pot string Cu-Zr_4.eam.fs
next            args
variable        e1 string ${args}
variable        e1 string Cu
next            args
variable        e2 string ${args}
variable        e2 string Zr
next            args
variable        x equal ${args}
variable        x equal 50
next            args
variable        y equal ${args}
variable        y equal 50
variable        frac equal $y/($x+$y)
variable        frac equal 50/($x+$y)
variable        frac equal 50/(50+$y)
variable        frac equal 50/(50+50)
next            args
variable        T1 equal ${args}
variable        T1 equal 200000
next            args
variable	heat_ramp equal ${args}			#0.05/ps ramp rate
variable	heat_ramp equal 0.25			

variable        th equal ${T1}/40			#thermo and dump values evaluated
variable        th equal 200000/40			
variable        df equal ${T1}/20
variable        df equal 200000/20

variable	lat equal 3.6				#lattice parameter to define spacings

variable	T_hot equal 2000
variable	T_cool equal 50
variable	T_heat equal 1000
#variable        T2 equal (${T_heat}-${T_cool})*((10^3)/(${quench_ramp})) #0.1K/ps quench rate at 1 atm pressure
variable	ht equal (${T_heat}-${T_cool})*((10^3)/(${heat_ramp})) #0.5K/ps quench rate at 1 atm pressure
variable	ht equal (1000-${T_cool})*((10^3)/(${heat_ramp})) 
variable	ht equal (1000-50)*((10^3)/(${heat_ramp})) 
variable	ht equal (1000-50)*((10^3)/(0.25)) 

variable        t1 equal ${T1}/10
variable        t1 equal 200000/10
variable        t equal ${ht}/25
variable        t equal 3800000/25
variable        ht_inter equal (${ht}/10)
variable        ht_inter equal (3800000/10)

#--------------------------------------------------------------------------------INTIALISE
units           metal					#fundamental LAMMPS and MD conditions initialization
dimension       3
atom_style      atomic
boundary        p p p
lattice		bcc ${lat}
lattice		bcc 3.6
Lattice spacing in x,y,z = 3.6000000 3.6000000 3.6000000

read_restart	../restart.msr_20
Reading restart file ...
  restart file = 29 Oct 2020, LAMMPS = 29 Oct 2020
WARNING: Restart file used different # of processors: 64 vs. 76 (../read_restart.cpp:697)
  restoring atom style atomic from restart
  orthogonal box = (-32.899909 -32.894461 -32.901225) to (101.28037 101.28365 101.28218)
  2 by 2 by 19 MPI processor grid
  pair style eam/fs stores no restart info
  135696 atoms
  read_restart CPU = 0.040 seconds

neigh_modify	every 1 delay 0 check yes

newton		on
pair_style	eam/fs					#EAM potentials best for metallic systems
pair_coeff      * * ${pot} ${e1} ${e2} ${e1} ${e2}	#4 types to unify data files to fit with CIBD deposited cluster tracking feature with atom ID offsets
pair_coeff      * * Cu-Zr_4.eam.fs ${e1} ${e2} ${e1} ${e2}	
pair_coeff      * * Cu-Zr_4.eam.fs Cu ${e2} ${e1} ${e2}	
pair_coeff      * * Cu-Zr_4.eam.fs Cu Zr ${e1} ${e2}	
pair_coeff      * * Cu-Zr_4.eam.fs Cu Zr Cu ${e2}	
pair_coeff      * * Cu-Zr_4.eam.fs Cu Zr Cu Zr	
reset_timestep  0

info groups fixes variables regions

#-----------------------------------------------------------------FIXES FOR SUBSTRATE
fix             corint all property/atom i_int

#--------------------------------------------------------------------------------COMPUTES
compute         c1 all temp
compute_modify  c1 dynamic/dof yes extra/dof 0		#It seemed like a dynamic evaluation was better
compute		c2 all pe/atom

#--------------------------------------------------------------------------------THERMO
thermo_style    custom step pe ke press temp vol enthalpy density etotal #c_c5 c_c6 #c_c4
thermo_modify   format float "% .6e"
thermo_modify   temp c1
thermo          ${th}
thermo          5000
timestep        0.0010					#standard timestep 1fs for metallic systems

write_dump all custom dump_msr.atom id type x y z vx vy vz i_int
WARNING: Calling write_dump before a full system init. (../write_dump.cpp:81)
dump            d1 all custom ${df} data/lammpstrj.dep.msr id type x y z vx vy vz i_int #save atom trajectories/timestep for visualisation
dump            d1 all custom 10000 data/lammpstrj.dep.msr id type x y z vx vy vz i_int 

#--------------------------------------------------------------------------------BALANCE AND EQUILIBRATE
comm_style	tiled					#to allow for rcb style (weighted balancing) of balancing of atoms across processors
balance		1.0 rcb out data/tmp.balance1_msr	#rebalance atoms on processors after deleting atoms outside sphere
Balancing ...
Neighbor list info ...
  update every 1 steps, delay 0 steps, check yes
  max neighbors/atom: 2000, page size: 100000
  master list distance cutoff = 9.6
  ghost atom cutoff = 9.6
  binsize = 4.8, bins = 28 28 28
  1 neighbor lists, perpetual/occasional/extra = 1 0 0
  (1) pair eam/fs, perpetual
      attributes: half, newton on
      pair build: half/bin/atomonly/newton
      stencil: half/bin/3d/newton
      bin: standard
 rebalancing time: 0.032 seconds
  iteration count = 0
  initial/final maximal load/proc = 1813.0000 1787.0000
  initial/final imbalance factor  = 1.0154168 1.0008549

#fix		hold all npt temp ${T_cool} ${T_cool} 0.1 iso 0 0 0.1		#equilibriate cluster at T_cool temperature
#run             ${T1} #every ${t1} "write_restart data/restart.equilib_1_msr" "print 'Succeeded step $(step); target step ${tstop}' append data/success.equilib_1_msr"
#write_restart   data/restart.equilib_1_msr
#unfix		hold

#-------------------------------------------------------------------------------HEATING
variable	loopsiz equal 20
variable	dT equal (${T_heat}-${T_cool})/${loopsiz}
variable	dT equal (1000-${T_cool})/${loopsiz}
variable	dT equal (1000-50)/${loopsiz}
variable	dT equal (1000-50)/20
variable	Temp1 equal ${T_cool}
variable	Temp1 equal 50
variable	Temp2 equal ${T_cool}+${dT}
variable	Temp2 equal 50+${dT}
variable	Temp2 equal 50+47.5
variable        tstop equal $(step)+${ht}
variable        tstop equal 0+${ht}
variable        tstop equal 0+3800000

#variable	hloop loop ${loopsiz}
#label		l3
#	fix     heat all npt temp ${Temp1} ${Temp2} 0.1 iso 0 0 0.1
#	run	${ht_inter}
#	write_restart data/restart.heat_msr
#	unfix	heat
#	fix	rest all npt temp ${Temp2} ${Temp2} 0.1 iso 0 0 0.1
#	run     ${T1}
#	unfix	rest
#	print 'Loop ${hloop}; succeeded temp ${Temp2} target ${T_heat}' append data/success.heat_msr
#	variable Temp1 equal ${Temp2}
#	variable Temp2 equal ${Temp2}+${dT}
#next		hloop
#jump		SELF l3

variable	st equal $(step)
variable	st equal 0
variable	et equal $(step)+${ht}
variable	et equal 0+${ht}
variable	et equal 0+3800000
fix     	heat all npt temp ${T_cool} ${T_heat} 0.1 iso 0 0 0.1
fix     	heat all npt temp 50 ${T_heat} 0.1 iso 0 0 0.1
fix     	heat all npt temp 50 1000 0.1 iso 0 0 0.1
run		${ht} #start ${st} stop ${et} every ${ht_inter} "write_restart data/restart.heat_msr" 		#	"print 'succeeded step $(step); target ${tstop}' append data/success.heat_msr"
run		3800000 
Per MPI rank memory allocation (min/avg/max) = 5.265 | 5.267 | 5.268 Mbytes
Step PotEng KinEng Press Temp Volume Enthalpy Density TotEng 
       0 -6.747940e+05  8.765437e+02  1.711649e+01  4.997374e+01  2.415846e+06 -6.738916e+05  7.222804e+00 -6.739174e+05 
    5000 -6.747730e+05  9.025772e+02  1.272934e+02  5.145797e+01  2.415506e+06 -6.736785e+05  7.223820e+00 -6.738704e+05 
   10000 -6.747508e+05  9.204985e+02  3.607621e+01  5.247971e+01  2.415868e+06 -6.737759e+05  7.222738e+00 -6.738303e+05 
   15000 -6.747287e+05  9.429383e+02 -1.008372e+02  5.375905e+01  2.416173e+06 -6.739378e+05  7.221824e+00 -6.737857e+05 
   20000 -6.747068e+05  9.637515e+02  4.389689e+01  5.494566e+01  2.415865e+06 -6.736769e+05  7.222747e+00 -6.737431e+05 
   25000 -6.746819e+05  9.827058e+02 -5.466604e+01  5.602629e+01  2.416190e+06 -6.737816e+05  7.221774e+00 -6.736991e+05 
   30000 -6.746595e+05  1.005194e+03 -3.002955e+01  5.730841e+01  2.416356e+06 -6.736996e+05  7.221279e+00 -6.736543e+05 
   35000 -6.746427e+05  1.028801e+03 -6.169844e+00  5.865429e+01  2.416306e+06 -6.736232e+05  7.221426e+00 -6.736139e+05 
   40000 -6.746169e+05  1.050374e+03 -3.250078e+01  5.988418e+01  2.416450e+06 -6.736155e+05  7.220996e+00 -6.735665e+05 
   45000 -6.745976e+05  1.072615e+03 -4.918630e+01  6.115221e+01  2.416540e+06 -6.735992e+05  7.220728e+00 -6.735250e+05 
   50000 -6.745737e+05  1.096805e+03  8.076707e+01  6.253135e+01  2.416295e+06 -6.733551e+05  7.221461e+00 -6.734769e+05 
   55000 -6.745488e+05  1.120057e+03 -3.464317e+00  6.385700e+01  2.416500e+06 -6.734339e+05  7.220847e+00 -6.734287e+05 
   60000 -6.745268e+05  1.141991e+03 -3.726765e+01  6.510748e+01  2.416754e+06 -6.734410e+05  7.220090e+00 -6.733848e+05 
   65000 -6.745052e+05  1.162227e+03 -8.247019e+01  6.626121e+01  2.416807e+06 -6.734674e+05  7.219930e+00 -6.733430e+05 
   70000 -6.744838e+05  1.180568e+03 -1.311664e+02  6.730684e+01  2.417009e+06 -6.735011e+05  7.219326e+00 -6.733032e+05 
   75000 -6.744573e+05  1.207527e+03 -1.988461e+01  6.884383e+01  2.416828e+06 -6.732798e+05  7.219869e+00 -6.732498e+05 
   80000 -6.744409e+05  1.226380e+03  1.912628e+02  6.991871e+01  2.416482e+06 -6.729260e+05  7.220902e+00 -6.732145e+05 
   85000 -6.744186e+05  1.251016e+03 -5.025336e+01  7.132325e+01  2.417102e+06 -6.732434e+05  7.219050e+00 -6.731676e+05 
   90000 -6.744023e+05  1.268775e+03  4.339426e+01  7.233573e+01  2.416897e+06 -6.730680e+05  7.219661e+00 -6.731335e+05 
   95000 -6.743720e+05  1.295705e+03  1.572628e+02  7.387106e+01  2.416884e+06 -6.728391e+05  7.219699e+00 -6.730763e+05 
  100000 -6.743523e+05  1.317692e+03  1.695840e+02  7.512462e+01  2.416664e+06 -6.727788e+05  7.220358e+00 -6.730346e+05 
  105000 -6.743332e+05  1.334891e+03  8.760718e+01  7.610515e+01  2.416922e+06 -6.728661e+05  7.219588e+00 -6.729983e+05 
  110000 -6.743076e+05  1.358017e+03  5.555048e+01  7.742365e+01  2.417177e+06 -6.728658e+05  7.218827e+00 -6.729496e+05 
  115000 -6.742890e+05  1.378494e+03 -5.717291e+01  7.859104e+01  2.417521e+06 -6.729968e+05  7.217797e+00 -6.729105e+05 
  120000 -6.742746e+05  1.404058e+03  7.268466e+01  8.004851e+01  2.417236e+06 -6.727609e+05  7.218650e+00 -6.728706e+05 
  125000 -6.742444e+05  1.424969e+03 -1.123384e+00  8.124072e+01  2.417449e+06 -6.728211e+05  7.218014e+00 -6.728194e+05 
  130000 -6.742299e+05  1.446507e+03 -6.721983e+01  8.246862e+01  2.417749e+06 -6.728849e+05  7.217118e+00 -6.727834e+05 
  135000 -6.742042e+05  1.469588e+03 -1.359715e+02  8.378456e+01  2.418008e+06 -6.729398e+05  7.216345e+00 -6.727346e+05 
  140000 -6.741832e+05  1.487316e+03 -8.217989e+01  8.479526e+01  2.417813e+06 -6.728199e+05  7.216927e+00 -6.726959e+05 
  145000 -6.741557e+05  1.517738e+03  3.112209e+01  8.652966e+01  2.417597e+06 -6.725910e+05  7.217570e+00 -6.726380e+05 
  150000 -6.741414e+05  1.536553e+03  2.513473e+01  8.760238e+01  2.417975e+06 -6.725669e+05  7.216443e+00 -6.726049e+05 
  155000 -6.741132e+05  1.555191e+03 -6.376771e+01  8.866495e+01  2.418009e+06 -6.726542e+05  7.216340e+00 -6.725580e+05 
  160000 -6.740997e+05  1.581560e+03 -5.789315e+01  9.016835e+01  2.418015e+06 -6.726055e+05  7.216325e+00 -6.725181e+05 
  165000 -6.740697e+05  1.598023e+03  1.013492e+02  9.110692e+01  2.417790e+06 -6.723188e+05  7.216996e+00 -6.724717e+05 
  170000 -6.740483e+05  1.621192e+03  1.115616e+02  9.242783e+01  2.417842e+06 -6.722587e+05  7.216839e+00 -6.724271e+05 
  175000 -6.740281e+05  1.643440e+03  2.827967e+01  9.369623e+01  2.418293e+06 -6.723420e+05  7.215494e+00 -6.723847e+05 
  180000 -6.740083e+05  1.663754e+03 -7.700969e+01  9.485438e+01  2.418409e+06 -6.724608e+05  7.215148e+00 -6.723445e+05 
  185000 -6.739879e+05  1.690250e+03  4.126258e+01  9.636496e+01  2.418151e+06 -6.722354e+05  7.215916e+00 -6.722977e+05 
  190000 -6.739646e+05  1.711880e+03 -1.277989e+02  9.759814e+01  2.418664e+06 -6.724456e+05  7.214387e+00 -6.722527e+05 
  195000 -6.739524e+05  1.731978e+03  8.296070e+01  9.874401e+01  2.418280e+06 -6.720952e+05  7.215532e+00 -6.722204e+05 
  200000 -6.739203e+05  1.751899e+03  1.199850e+02  9.987974e+01  2.418268e+06 -6.719873e+05  7.215568e+00 -6.721684e+05 
  205000 -6.739026e+05  1.775731e+03  9.351220e+01  1.012384e+02  2.418271e+06 -6.719858e+05  7.215559e+00 -6.721269e+05 
  210000 -6.738879e+05  1.798308e+03  1.161466e+02  1.025256e+02  2.418412e+06 -6.719143e+05  7.215140e+00 -6.720896e+05 
  215000 -6.738584e+05  1.817592e+03  1.151768e+02  1.036250e+02  2.418459e+06 -6.718669e+05  7.214999e+00 -6.720408e+05 
  220000 -6.738397e+05  1.837091e+03 -9.924268e+01  1.047367e+02  2.419030e+06 -6.721524e+05  7.213295e+00 -6.720026e+05 
  225000 -6.738243e+05  1.868983e+03  4.468990e+01  1.065549e+02  2.418582e+06 -6.718879e+05  7.214631e+00 -6.719554e+05 
  230000 -6.738028e+05  1.880691e+03 -1.188149e+02  1.072224e+02  2.419159e+06 -6.721015e+05  7.212911e+00 -6.719221e+05 
  235000 -6.737753e+05  1.910420e+03 -2.449717e+01  1.089174e+02  2.418964e+06 -6.719018e+05  7.213492e+00 -6.718649e+05 
  240000 -6.737520e+05  1.927706e+03  5.769487e+01  1.099029e+02  2.419018e+06 -6.717372e+05  7.213333e+00 -6.718243e+05 
  245000 -6.737338e+05  1.947859e+03  2.209958e+01  1.110519e+02  2.419153e+06 -6.717525e+05  7.212930e+00 -6.717859e+05 
  250000 -6.737056e+05  1.976871e+03 -6.339719e+01  1.127059e+02  2.419370e+06 -6.718244e+05  7.212281e+00 -6.717287e+05 
  255000 -6.736787e+05  1.993021e+03  2.530764e+01  1.136267e+02  2.419401e+06 -6.716475e+05  7.212190e+00 -6.716857e+05 
  260000 -6.736636e+05  2.013560e+03 -2.244009e+01  1.147976e+02  2.419315e+06 -6.716839e+05  7.212447e+00 -6.716500e+05 
  265000 -6.736428e+05  2.043634e+03  4.402186e+01  1.165122e+02  2.419244e+06 -6.715327e+05  7.212658e+00 -6.715992e+05 
  270000 -6.736152e+05  2.067913e+03 -5.626275e+01  1.178964e+02  2.419594e+06 -6.716323e+05  7.211615e+00 -6.715473e+05 
  275000 -6.735891e+05  2.077872e+03 -1.091564e+02  1.184642e+02  2.419723e+06 -6.716761e+05  7.211231e+00 -6.715112e+05 
  280000 -6.735746e+05  2.097725e+03 -4.034556e+01  1.195961e+02  2.419589e+06 -6.715378e+05  7.211630e+00 -6.714768e+05 
  285000 -6.735480e+05  2.121561e+03 -7.046039e+01  1.209550e+02  2.419847e+06 -6.715329e+05  7.210862e+00 -6.714265e+05 
  290000 -6.735324e+05  2.153893e+03  4.264002e+01  1.227983e+02  2.419543e+06 -6.713141e+05  7.211767e+00 -6.713785e+05 
  295000 -6.735137e+05  2.175199e+03  1.155290e+02  1.240130e+02  2.419574e+06 -6.711641e+05  7.211674e+00 -6.713385e+05 
  300000 -6.734889e+05  2.192960e+03 -5.344269e+01  1.250256e+02  2.420010e+06 -6.713767e+05  7.210374e+00 -6.712959e+05 
  305000 -6.734686e+05  2.217620e+03  1.358196e+02  1.264316e+02  2.419680e+06 -6.710459e+05  7.211359e+00 -6.712510e+05 
  310000 -6.734502e+05  2.229443e+03  1.552863e+02  1.271056e+02  2.419637e+06 -6.709863e+05  7.211486e+00 -6.712208e+05 
  315000 -6.734344e+05  2.256786e+03 -8.135679e-01  1.286645e+02  2.420028e+06 -6.711788e+05  7.210320e+00 -6.711776e+05 
  320000 -6.733974e+05  2.274954e+03 -1.245799e+01  1.297003e+02  2.420201e+06 -6.711413e+05  7.209806e+00 -6.711225e+05 
  325000 -6.733875e+05  2.301655e+03  5.129326e+01  1.312225e+02  2.420111e+06 -6.710083e+05  7.210073e+00 -6.710858e+05 
  330000 -6.733677e+05  2.331546e+03  1.525047e+02  1.329267e+02  2.419949e+06 -6.708058e+05  7.210556e+00 -6.710361e+05 
  335000 -6.733366e+05  2.340589e+03 -1.692347e+02  1.334423e+02  2.420587e+06 -6.712517e+05  7.208656e+00 -6.709960e+05 
  340000 -6.733266e+05  2.373237e+03  1.351053e+02  1.353036e+02  2.420157e+06 -6.707493e+05  7.209936e+00 -6.709533e+05 
  345000 -6.733081e+05  2.388795e+03  4.190538e+01  1.361906e+02  2.420344e+06 -6.708560e+05  7.209380e+00 -6.709194e+05 
  350000 -6.732753e+05  2.406846e+03 -1.212172e+02  1.372198e+02  2.420803e+06 -6.710516e+05  7.208014e+00 -6.708684e+05 
  355000 -6.732698e+05  2.434082e+03 -1.962814e+01  1.387725e+02  2.420711e+06 -6.708654e+05  7.208288e+00 -6.708358e+05 
  360000 -6.732321e+05  2.452855e+03 -8.164046e+01  1.398429e+02  2.420904e+06 -6.709026e+05  7.207712e+00 -6.707792e+05 
  365000 -6.732083e+05  2.486240e+03  7.732477e+00  1.417462e+02  2.420826e+06 -6.707103e+05  7.207946e+00 -6.707220e+05 
  370000 -6.731848e+05  2.491468e+03  2.149245e+02  1.420442e+02  2.420404e+06 -6.703687e+05  7.209201e+00 -6.706933e+05 
  375000 -6.731718e+05  2.523273e+03 -9.666745e+01  1.438575e+02  2.420998e+06 -6.707946e+05  7.207432e+00 -6.706485e+05 
  380000 -6.731403e+05  2.540932e+03  2.723006e+01  1.448643e+02  2.420886e+06 -6.705582e+05  7.207766e+00 -6.705994e+05 
  385000 -6.731140e+05  2.560123e+03 -4.856562e+01  1.459584e+02  2.421280e+06 -6.706273e+05  7.206592e+00 -6.705539e+05 
  390000 -6.730997e+05  2.592259e+03 -1.502710e+02  1.477906e+02  2.421672e+06 -6.707346e+05  7.205427e+00 -6.705074e+05 
  395000 -6.730798e+05  2.604916e+03 -2.664774e+02  1.485122e+02  2.421720e+06 -6.708777e+05  7.205282e+00 -6.704749e+05 
  400000 -6.730466e+05  2.624198e+03 -1.450337e+02  1.496115e+02  2.421743e+06 -6.706417e+05  7.205214e+00 -6.704224e+05 
  405000 -6.730407e+05  2.648905e+03 -6.164659e+01  1.510201e+02  2.421502e+06 -6.704850e+05  7.205931e+00 -6.703918e+05 
  410000 -6.730147e+05  2.675876e+03  2.324696e+02  1.525577e+02  2.420921e+06 -6.699876e+05  7.207662e+00 -6.703388e+05 
  415000 -6.729885e+05  2.677406e+03 -8.947207e+01  1.526450e+02  2.421728e+06 -6.704463e+05  7.205259e+00 -6.703111e+05 
  420000 -6.729713e+05  2.715269e+03  1.730805e+02  1.548037e+02  2.421253e+06 -6.699944e+05  7.206672e+00 -6.702560e+05 
  425000 -6.729354e+05  2.737029e+03 -2.568666e+02  1.560442e+02  2.422183e+06 -6.705867e+05  7.203906e+00 -6.701983e+05 
  430000 -6.729373e+05  2.771182e+03 -4.567552e+01  1.579914e+02  2.421669e+06 -6.702351e+05  7.205437e+00 -6.701661e+05 
  435000 -6.728902e+05  2.782977e+03  6.337603e+00  1.586638e+02  2.421881e+06 -6.700976e+05  7.204804e+00 -6.701072e+05 
  440000 -6.728786e+05  2.807293e+03 -6.513801e+01  1.600501e+02  2.421808e+06 -6.701698e+05  7.205022e+00 -6.700713e+05 
  445000 -6.728781e+05  2.823663e+03 -8.532707e+01  1.609834e+02  2.422170e+06 -6.701834e+05  7.203946e+00 -6.700544e+05 
  450000 -6.728367e+05  2.851133e+03 -1.432150e+02  1.625496e+02  2.422255e+06 -6.702021e+05  7.203693e+00 -6.699855e+05 
  455000 -6.728120e+05  2.878929e+03  1.540613e+02  1.641343e+02  2.421802e+06 -6.697002e+05  7.205038e+00 -6.699330e+05 
  460000 -6.727967e+05  2.897739e+03  3.843249e+00  1.652067e+02  2.422155e+06 -6.698932e+05  7.203989e+00 -6.698990e+05 
  465000 -6.727708e+05  2.927005e+03 -3.750246e+01  1.668752e+02  2.422184e+06 -6.699005e+05  7.203902e+00 -6.698438e+05 
  470000 -6.727484e+05  2.938394e+03 -1.830611e+01  1.675245e+02  2.422226e+06 -6.698377e+05  7.203777e+00 -6.698100e+05 
  475000 -6.727286e+05  2.961320e+03  7.451395e+01  1.688316e+02  2.422010e+06 -6.696546e+05  7.204420e+00 -6.697672e+05 
  480000 -6.727034e+05  2.974821e+03  5.966038e+01  1.696013e+02  2.422130e+06 -6.696384e+05  7.204064e+00 -6.697286e+05 
  485000 -6.726869e+05  3.007942e+03  1.520285e+02  1.714896e+02  2.422216e+06 -6.694491e+05  7.203807e+00 -6.696790e+05 
  490000 -6.726637e+05  3.014321e+03  1.525304e+02  1.718533e+02  2.422155e+06 -6.694188e+05  7.203988e+00 -6.696493e+05 
  495000 -6.726364e+05  3.040625e+03 -5.292564e+01  1.733529e+02  2.422718e+06 -6.696758e+05  7.202316e+00 -6.695958e+05 
  500000 -6.726299e+05  3.063001e+03 -2.056221e+00  1.746286e+02  2.422536e+06 -6.695700e+05  7.202855e+00 -6.695669e+05 
  505000 -6.726006e+05  3.092670e+03 -7.247458e+01  1.763201e+02  2.422885e+06 -6.696176e+05  7.201820e+00 -6.695080e+05 
  510000 -6.725807e+05  3.113794e+03  3.265839e+01  1.775245e+02  2.422882e+06 -6.694175e+05  7.201826e+00 -6.694669e+05 
  515000 -6.725545e+05  3.140920e+03 -2.220323e+01  1.790710e+02  2.422912e+06 -6.694471e+05  7.201740e+00 -6.694135e+05 
  520000 -6.725285e+05  3.156192e+03 -3.334969e+02  1.799417e+02  2.423550e+06 -6.698768e+05  7.199844e+00 -6.693723e+05 
  525000 -6.725095e+05  3.178482e+03 -2.164845e+02  1.812125e+02  2.423459e+06 -6.696584e+05  7.200114e+00 -6.693310e+05 
  530000 -6.724737e+05  3.207877e+03 -2.150774e+02  1.828883e+02  2.423589e+06 -6.695912e+05  7.199726e+00 -6.692659e+05 
  535000 -6.724814e+05  3.222618e+03 -2.412137e+01  1.837288e+02  2.423243e+06 -6.692953e+05  7.200755e+00 -6.692588e+05 
  540000 -6.724398e+05  3.248950e+03  2.474868e+02  1.852300e+02  2.422846e+06 -6.688166e+05  7.201935e+00 -6.691908e+05 
  545000 -6.724152e+05  3.267579e+03 -3.144736e+01  1.862921e+02  2.423526e+06 -6.691952e+05  7.199915e+00 -6.691476e+05 
  550000 -6.723836e+05  3.279235e+03  1.334196e+02  1.869566e+02  2.423289e+06 -6.689025e+05  7.200618e+00 -6.691043e+05 
  555000 -6.723689e+05  3.298420e+03 -1.431360e+02  1.880504e+02  2.423639e+06 -6.692870e+05  7.199579e+00 -6.690705e+05 
  560000 -6.723498e+05  3.342003e+03  1.062038e+02  1.905352e+02  2.423296e+06 -6.688471e+05  7.200599e+00 -6.690078e+05 
  565000 -6.723361e+05  3.344612e+03  2.612085e+02  1.906839e+02  2.423095e+06 -6.685964e+05  7.201193e+00 -6.689915e+05 
  570000 -6.723124e+05  3.386845e+03  7.679413e+01  1.930917e+02  2.423475e+06 -6.688094e+05  7.200065e+00 -6.689255e+05 
  575000 -6.722988e+05  3.399727e+03  1.142621e+02  1.938262e+02  2.423562e+06 -6.687262e+05  7.199808e+00 -6.688991e+05 
  580000 -6.722839e+05  3.407956e+03  1.301249e+02  1.942953e+02  2.423574e+06 -6.686791e+05  7.199772e+00 -6.688759e+05 
  585000 -6.722354e+05  3.442985e+03 -2.030111e+01  1.962924e+02  2.423972e+06 -6.688232e+05  7.198590e+00 -6.687924e+05 
  590000 -6.722211e+05  3.457713e+03 -1.062251e+02  1.971321e+02  2.424332e+06 -6.689241e+05  7.197520e+00 -6.687634e+05 
  595000 -6.721972e+05  3.488815e+03  8.152367e+01  1.989053e+02  2.423938e+06 -6.685851e+05  7.198692e+00 -6.687084e+05 
  600000 -6.721936e+05  3.507782e+03 -4.516091e+01  1.999866e+02  2.424251e+06 -6.687542e+05  7.197761e+00 -6.686859e+05 
  605000 -6.721653e+05  3.536426e+03  2.479178e+01  2.016197e+02  2.424277e+06 -6.685913e+05  7.197684e+00 -6.686288e+05 
  610000 -6.721402e+05  3.564388e+03  1.898510e+02  2.032138e+02  2.423941e+06 -6.682886e+05  7.198682e+00 -6.685758e+05 
  615000 -6.721073e+05  3.576778e+03  2.323390e+01  2.039202e+02  2.424437e+06 -6.684954e+05  7.197208e+00 -6.685306e+05 
  620000 -6.721007e+05  3.587443e+03 -1.746395e+02  2.045283e+02  2.424779e+06 -6.687776e+05  7.196194e+00 -6.685133e+05 
  625000 -6.720742e+05  3.614060e+03 -1.052645e+02  2.060458e+02  2.424702e+06 -6.686195e+05  7.196423e+00 -6.684601e+05 
  630000 -6.720424e+05  3.645774e+03  7.277308e+00  2.078538e+02  2.424441e+06 -6.683856e+05  7.197196e+00 -6.683966e+05 
  635000 -6.720276e+05  3.659757e+03  2.422062e+02  2.086511e+02  2.424171e+06 -6.680013e+05  7.197999e+00 -6.683678e+05 
  640000 -6.720073e+05  3.679270e+03 -3.400633e+01  2.097635e+02  2.424875e+06 -6.683795e+05  7.195908e+00 -6.683280e+05 
  645000 -6.719811e+05  3.702195e+03 -1.016992e+01  2.110705e+02  2.425085e+06 -6.682943e+05  7.195286e+00 -6.682789e+05 
  650000 -6.719730e+05  3.739464e+03  3.976747e+01  2.131953e+02  2.424865e+06 -6.681733e+05  7.195939e+00 -6.682335e+05 
  655000 -6.719448e+05  3.757947e+03 -3.085515e+01  2.142491e+02  2.424998e+06 -6.682336e+05  7.195542e+00 -6.681869e+05 
  660000 -6.719192e+05  3.771411e+03 -3.085587e+01  2.150167e+02  2.425122e+06 -6.681945e+05  7.195176e+00 -6.681478e+05 
  665000 -6.719078e+05  3.771467e+03  4.151059e+01  2.150199e+02  2.424737e+06 -6.680735e+05  7.196317e+00 -6.681363e+05 
  670000 -6.718802e+05  3.815818e+03  3.571415e+02  2.175484e+02  2.424133e+06 -6.675241e+05  7.198110e+00 -6.680644e+05 
  675000 -6.718588e+05  3.842793e+03  7.140148e+01  2.190864e+02  2.424946e+06 -6.679080e+05  7.195697e+00 -6.680160e+05 
  680000 -6.718282e+05  3.869300e+03  3.022284e+01  2.205976e+02  2.425094e+06 -6.679132e+05  7.195259e+00 -6.679589e+05 
  685000 -6.717906e+05  3.877598e+03 -5.102144e+00  2.210707e+02  2.425276e+06 -6.679207e+05  7.194718e+00 -6.679130e+05 
  690000 -6.717826e+05  3.910023e+03 -2.138652e+02  2.229193e+02  2.425959e+06 -6.681964e+05  7.192692e+00 -6.678725e+05 
  695000 -6.717651e+05  3.930940e+03  2.136103e+02  2.241118e+02  2.425077e+06 -6.675108e+05  7.195309e+00 -6.678342e+05 
  700000 -6.717569e+05  3.939855e+03 -7.851524e+01  2.246200e+02  2.425856e+06 -6.679359e+05  7.192998e+00 -6.678170e+05 
  705000 -6.717239e+05  3.961172e+03  9.993935e+01  2.258354e+02  2.425501e+06 -6.676114e+05  7.194052e+00 -6.677627e+05 
  710000 -6.716955e+05  3.977211e+03 -1.888033e+02  2.267498e+02  2.426189e+06 -6.680042e+05  7.192013e+00 -6.677183e+05 
  715000 -6.716783e+05  4.004502e+03 -1.306311e+02  2.283057e+02  2.426118e+06 -6.678716e+05  7.192221e+00 -6.676738e+05 
  720000 -6.716744e+05  4.044725e+03 -5.091915e+01  2.305989e+02  2.425883e+06 -6.677068e+05  7.192917e+00 -6.676297e+05 
  725000 -6.716370e+05  4.062834e+03 -5.866092e+01  2.316314e+02  2.426128e+06 -6.676630e+05  7.192194e+00 -6.675742e+05 
  730000 -6.716124e+05  4.082229e+03 -9.175170e+01  2.327371e+02  2.426371e+06 -6.676691e+05  7.191472e+00 -6.675302e+05 
  735000 -6.716080e+05  4.090095e+03 -3.583083e+01  2.331856e+02  2.426253e+06 -6.675721e+05  7.191820e+00 -6.675179e+05 
  740000 -6.715607e+05  4.118928e+03  1.482894e+02  2.348294e+02  2.425882e+06 -6.672172e+05  7.192923e+00 -6.674418e+05 
  745000 -6.715507e+05  4.148568e+03 -2.499237e+02  2.365193e+02  2.426803e+06 -6.677807e+05  7.190191e+00 -6.674021e+05 
  750000 -6.715314e+05  4.168448e+03  2.280401e+02  2.376527e+02  2.425851e+06 -6.670177e+05  7.193012e+00 -6.673629e+05 
  755000 -6.714986e+05  4.195454e+03 -1.723726e+02  2.391923e+02  2.426646e+06 -6.675642e+05  7.190657e+00 -6.673031e+05 
  760000 -6.714693e+05  4.189719e+03 -9.251882e+01  2.388654e+02  2.426442e+06 -6.674197e+05  7.191260e+00 -6.672796e+05 
  765000 -6.714541e+05  4.231740e+03  3.286304e+01  2.412611e+02  2.426575e+06 -6.671726e+05  7.190866e+00 -6.672224e+05 
  770000 -6.714425e+05  4.243062e+03  6.006819e+01  2.419066e+02  2.426351e+06 -6.671085e+05  7.191530e+00 -6.671995e+05 
  775000 -6.714406e+05  4.296488e+03  3.577661e+01  2.449525e+02  2.426525e+06 -6.670900e+05  7.191015e+00 -6.671442e+05 
  780000 -6.713870e+05  4.286065e+03  9.120795e+01  2.443583e+02  2.426576e+06 -6.669628e+05  7.190864e+00 -6.671010e+05 
  785000 -6.713789e+05  4.315873e+03 -1.048544e+02  2.460577e+02  2.427040e+06 -6.672219e+05  7.189489e+00 -6.670631e+05 
  790000 -6.713510e+05  4.356735e+03 -7.118823e+01  2.483873e+02  2.427024e+06 -6.671021e+05  7.189536e+00 -6.669943e+05 
  795000 -6.713281e+05  4.366592e+03  1.256496e+02  2.489493e+02  2.426547e+06 -6.667712e+05  7.190950e+00 -6.669615e+05 
  800000 -6.713207e+05  4.364808e+03  1.025315e+02  2.488476e+02  2.426848e+06 -6.668006e+05  7.190058e+00 -6.669559e+05 
  805000 -6.712884e+05  4.413577e+03 -2.688244e+02  2.516281e+02  2.427621e+06 -6.672821e+05  7.187770e+00 -6.668748e+05 
  810000 -6.712582e+05  4.425773e+03  1.341200e+02  2.523233e+02  2.426957e+06 -6.666292e+05  7.189736e+00 -6.668324e+05 
  815000 -6.712538e+05  4.450283e+03  1.725524e+02  2.537207e+02  2.426937e+06 -6.665421e+05  7.189796e+00 -6.668035e+05 
  820000 -6.712217e+05  4.464716e+03 -9.407706e+01  2.545436e+02  2.427413e+06 -6.668995e+05  7.188384e+00 -6.667570e+05 
  825000 -6.712158e+05  4.509922e+03 -1.709866e+02  2.571209e+02  2.427769e+06 -6.669650e+05  7.187330e+00 -6.667059e+05 
  830000 -6.711585e+05  4.512249e+03 -7.082536e+01  2.572535e+02  2.427675e+06 -6.667536e+05  7.187610e+00 -6.666463e+05 
  835000 -6.711376e+05  4.539833e+03 -4.646202e+01  2.588262e+02  2.427729e+06 -6.666681e+05  7.187448e+00 -6.665977e+05 
  840000 -6.711214e+05  4.560134e+03 -1.689379e+02  2.599836e+02  2.427872e+06 -6.668172e+05  7.187025e+00 -6.665612e+05 
  845000 -6.710985e+05  4.577815e+03 -7.800077e+01  2.609916e+02  2.427950e+06 -6.666389e+05  7.186796e+00 -6.665207e+05 
  850000 -6.710867e+05  4.595530e+03  4.099893e+01  2.620016e+02  2.427541e+06 -6.664291e+05  7.188005e+00 -6.664912e+05 
  855000 -6.710574e+05  4.632021e+03  1.381147e+02  2.640820e+02  2.427630e+06 -6.662161e+05  7.187741e+00 -6.664253e+05 
  860000 -6.710539e+05  4.651816e+03 -7.036552e+00  2.652106e+02  2.427831e+06 -6.664128e+05  7.187146e+00 -6.664021e+05 
  865000 -6.710130e+05  4.673613e+03  1.514910e+02  2.664533e+02  2.427807e+06 -6.661099e+05  7.187219e+00 -6.663394e+05 
  870000 -6.710019e+05  4.704008e+03  2.370821e+01  2.681862e+02  2.428420e+06 -6.662620e+05  7.185405e+00 -6.662979e+05 
  875000 -6.709658e+05  4.717511e+03 -1.138989e+02  2.689560e+02  2.428624e+06 -6.664210e+05  7.184801e+00 -6.662483e+05 
  880000 -6.709779e+05  4.726974e+03 -1.496296e+02  2.694955e+02  2.428600e+06 -6.664777e+05  7.184873e+00 -6.662509e+05 
  885000 -6.709428e+05  4.762220e+03  4.070619e+00  2.715050e+02  2.428527e+06 -6.661745e+05  7.185087e+00 -6.661806e+05 
  890000 -6.708879e+05  4.779326e+03  1.303993e+01  2.724802e+02  2.428377e+06 -6.660888e+05  7.185533e+00 -6.661086e+05 
  895000 -6.708971e+05  4.802477e+03 -1.942165e+02  2.738001e+02  2.428837e+06 -6.663891e+05  7.184170e+00 -6.660946e+05 
  900000 -6.708762e+05  4.828913e+03 -2.374822e+02  2.753073e+02  2.429260e+06 -6.664074e+05  7.182918e+00 -6.660473e+05 
  905000 -6.708464e+05  4.849523e+03  1.292692e+02  2.764823e+02  2.428201e+06 -6.658010e+05  7.186051e+00 -6.659969e+05 
  910000 -6.708014e+05  4.858567e+03 -7.677065e+01  2.769979e+02  2.428764e+06 -6.660592e+05  7.184386e+00 -6.659428e+05 
  915000 -6.707916e+05  4.892910e+03  6.562812e+01  2.789559e+02  2.428602e+06 -6.657992e+05  7.184864e+00 -6.658987e+05 
  920000 -6.707790e+05  4.931780e+03 -1.245377e+02  2.811720e+02  2.429004e+06 -6.660361e+05  7.183677e+00 -6.658473e+05 
  925000 -6.707609e+05  4.925519e+03  9.237659e+01  2.808150e+02  2.428557e+06 -6.656954e+05  7.184999e+00 -6.658354e+05 
  930000 -6.707372e+05  4.955911e+03  1.695196e+02  2.825478e+02  2.428443e+06 -6.655243e+05  7.185336e+00 -6.657813e+05 
  935000 -6.706980e+05  4.989847e+03 -2.499434e+01  2.844825e+02  2.429032e+06 -6.657460e+05  7.183592e+00 -6.657081e+05 
  940000 -6.707051e+05  5.002198e+03 -7.511096e+00  2.851866e+02  2.429025e+06 -6.657143e+05  7.183613e+00 -6.657029e+05 
  945000 -6.706562e+05  5.035147e+03 -4.248198e+01  2.870652e+02  2.429281e+06 -6.656855e+05  7.182858e+00 -6.656211e+05 
  950000 -6.706456e+05  5.059193e+03  4.551182e+01  2.884360e+02  2.429410e+06 -6.655174e+05  7.182477e+00 -6.655864e+05 
  955000 -6.706198e+05  5.061011e+03  1.724460e+02  2.885397e+02  2.429168e+06 -6.652973e+05  7.183190e+00 -6.655588e+05 
  960000 -6.706112e+05  5.091885e+03  8.520755e+00  2.902999e+02  2.429242e+06 -6.655064e+05  7.182974e+00 -6.655193e+05 
  965000 -6.705805e+05  5.087697e+03 -2.979786e+02  2.900611e+02  2.430070e+06 -6.659447e+05  7.180525e+00 -6.654928e+05 
  970000 -6.705476e+05  5.125233e+03  2.120111e+02  2.922011e+02  2.429133e+06 -6.651009e+05  7.183295e+00 -6.654223e+05 
  975000 -6.705462e+05  5.129657e+03 -1.996876e+02  2.924534e+02  2.429803e+06 -6.657194e+05  7.181313e+00 -6.654166e+05 
  980000 -6.705189e+05  5.177788e+03  1.129070e+02  2.951974e+02  2.429581e+06 -6.651699e+05  7.181970e+00 -6.653411e+05 
  985000 -6.704797e+05  5.189069e+03 -1.382797e+01  2.958406e+02  2.429671e+06 -6.653116e+05  7.181705e+00 -6.652907e+05 
  990000 -6.704390e+05  5.224627e+03 -2.762647e+02  2.978678e+02  2.430476e+06 -6.656335e+05  7.179325e+00 -6.652144e+05 
  995000 -6.704284e+05  5.254153e+03 -1.855593e+01  2.995512e+02  2.429857e+06 -6.652024e+05  7.181156e+00 -6.651742e+05 
 1000000 -6.704148e+05  5.254024e+03 -1.243313e+02  2.995438e+02  2.430287e+06 -6.653494e+05  7.179884e+00 -6.651608e+05 
 1005000 -6.704227e+05  5.286871e+03 -1.965673e+02  3.014165e+02  2.430541e+06 -6.654340e+05  7.179135e+00 -6.651358e+05 
 1010000 -6.703693e+05  5.330862e+03 -1.139382e+02  3.039245e+02  2.430347e+06 -6.652112e+05  7.179707e+00 -6.650384e+05 
 1015000 -6.703551e+05  5.318048e+03  8.570535e+01  3.031940e+02  2.430093e+06 -6.649070e+05  7.180458e+00 -6.650370e+05 
 1020000 -6.703401e+05  5.333160e+03  1.923521e+02  3.040555e+02  2.429997e+06 -6.647152e+05  7.180740e+00 -6.650070e+05 
 1025000 -6.703309e+05  5.379236e+03 -5.608285e+01  3.066824e+02  2.430340e+06 -6.650367e+05  7.179727e+00 -6.649516e+05 
 1030000 -6.703061e+05  5.404422e+03  4.233643e+01  3.081184e+02  2.430523e+06 -6.648375e+05  7.179187e+00 -6.649017e+05 
 1035000 -6.702716e+05  5.414506e+03 -4.686451e+01  3.086933e+02  2.430645e+06 -6.649282e+05  7.178827e+00 -6.648571e+05 
 1040000 -6.702365e+05  5.416950e+03  4.655567e+01  3.088326e+02  2.430819e+06 -6.647489e+05  7.178312e+00 -6.648195e+05 
 1045000 -6.702182e+05  5.470040e+03 -1.939919e+02  3.118594e+02  2.431177e+06 -6.650425e+05  7.177254e+00 -6.647482e+05 
 1050000 -6.701799e+05  5.486075e+03  5.529161e+01  3.127736e+02  2.430498e+06 -6.646099e+05  7.179262e+00 -6.646938e+05 
 1055000 -6.701647e+05  5.502308e+03  2.338995e+02  3.136990e+02  2.430327e+06 -6.643076e+05  7.179766e+00 -6.646624e+05 
 1060000 -6.701319e+05  5.540156e+03  1.745665e+02  3.158569e+02  2.430608e+06 -6.643269e+05  7.178935e+00 -6.645918e+05 
 1065000 -6.701288e+05  5.554816e+03  1.717114e+02  3.166927e+02  2.430640e+06 -6.643135e+05  7.178840e+00 -6.645740e+05 
 1070000 -6.701060e+05  5.569705e+03  1.239158e+02  3.175415e+02  2.431022e+06 -6.643483e+05  7.177712e+00 -6.645363e+05 
 1075000 -6.700801e+05  5.595030e+03  8.649664e+01  3.189854e+02  2.431153e+06 -6.643538e+05  7.177327e+00 -6.644851e+05 
 1080000 -6.700505e+05  5.615694e+03 -3.059547e+02  3.201634e+02  2.432032e+06 -6.648992e+05  7.174733e+00 -6.644348e+05 
 1085000 -6.700216e+05  5.617757e+03 -4.699915e+01  3.202811e+02  2.431350e+06 -6.644752e+05  7.176745e+00 -6.644038e+05 
 1090000 -6.700111e+05  5.654721e+03  2.743298e+02  3.223885e+02  2.430840e+06 -6.639402e+05  7.178252e+00 -6.643564e+05 
 1095000 -6.699994e+05  5.676488e+03 -2.163276e+02  3.236295e+02  2.432035e+06 -6.646513e+05  7.174723e+00 -6.643229e+05 
 1100000 -6.699583e+05  5.729944e+03  9.643805e+01  3.266771e+02  2.431410e+06 -6.640820e+05  7.176568e+00 -6.642283e+05 
 1105000 -6.699282e+05  5.719217e+03 -2.320932e+02  3.260655e+02  2.432147e+06 -6.645613e+05  7.174392e+00 -6.642090e+05 
 1110000 -6.699278e+05  5.752236e+03  3.313866e+01  3.279480e+02  2.431615e+06 -6.641253e+05  7.175962e+00 -6.641756e+05 
 1115000 -6.698894e+05  5.787687e+03  4.111509e+02  3.299691e+02  2.430620e+06 -6.634780e+05  7.178901e+00 -6.641018e+05 
 1120000 -6.698867e+05  5.784045e+03  1.570935e+02  3.297615e+02  2.431312e+06 -6.638642e+05  7.176856e+00 -6.641026e+05 
 1125000 -6.698521e+05  5.807238e+03  1.488463e+01  3.310838e+02  2.432183e+06 -6.640222e+05  7.174286e+00 -6.640448e+05 
 1130000 -6.698187e+05  5.851348e+03  4.376656e+01  3.335986e+02  2.431904e+06 -6.639009e+05  7.175111e+00 -6.639674e+05 
 1135000 -6.698072e+05  5.850965e+03  1.672698e+02  3.335768e+02  2.431497e+06 -6.637024e+05  7.176312e+00 -6.639562e+05 
 1140000 -6.697724e+05  5.886828e+03  2.751320e+01  3.356214e+02  2.432019e+06 -6.638438e+05  7.174769e+00 -6.638856e+05 
 1145000 -6.697534e+05  5.908691e+03 -6.102308e+00  3.368678e+02  2.432415e+06 -6.638539e+05  7.173601e+00 -6.638447e+05 
 1150000 -6.697425e+05  5.917012e+03 -1.484791e+02  3.373423e+02  2.432861e+06 -6.640510e+05  7.172288e+00 -6.638255e+05 
 1155000 -6.697180e+05  5.929465e+03  2.073208e+02  3.380523e+02  2.432209e+06 -6.634738e+05  7.174209e+00 -6.637885e+05 
 1160000 -6.696779e+05  5.960970e+03 -3.190863e+02  3.398484e+02  2.433172e+06 -6.642016e+05  7.171371e+00 -6.637170e+05 
 1165000 -6.696693e+05  5.977154e+03  1.846471e+02  3.407711e+02  2.432244e+06 -6.634119e+05  7.174107e+00 -6.636922e+05 
 1170000 -6.696276e+05  5.999030e+03 -2.256506e+02  3.420183e+02  2.433170e+06 -6.639712e+05  7.171376e+00 -6.636285e+05 
 1175000 -6.696203e+05  6.034991e+03 -3.601835e+01  3.440685e+02  2.432906e+06 -6.636400e+05  7.172154e+00 -6.635853e+05 
 1180000 -6.695890e+05  6.046957e+03  1.420722e+02  3.447507e+02  2.432517e+06 -6.633263e+05  7.173301e+00 -6.635420e+05 
 1185000 -6.695723e+05  6.061826e+03  2.620670e+02  3.455985e+02  2.432334e+06 -6.631126e+05  7.173842e+00 -6.635105e+05 
 1190000 -6.695427e+05  6.108944e+03  3.121912e+02  3.482847e+02  2.432563e+06 -6.629598e+05  7.173165e+00 -6.634338e+05 
 1195000 -6.695159e+05  6.100697e+03  1.395877e+02  3.478146e+02  2.432560e+06 -6.632033e+05  7.173176e+00 -6.634152e+05 
 1200000 -6.695170e+05  6.156233e+03  7.833609e+01  3.509808e+02  2.432774e+06 -6.632418e+05  7.172545e+00 -6.633607e+05 
 1205000 -6.695010e+05  6.185603e+03 -3.492600e+01  3.526552e+02  2.433388e+06 -6.633685e+05  7.170734e+00 -6.633154e+05 
 1210000 -6.694526e+05  6.191516e+03 -3.750674e+02  3.529924e+02  2.434087e+06 -6.638309e+05  7.168674e+00 -6.632611e+05 
 1215000 -6.694362e+05  6.203296e+03  1.087785e+02  3.536640e+02  2.433199e+06 -6.630677e+05  7.171290e+00 -6.632329e+05 
 1220000 -6.694200e+05  6.218620e+03 -7.620478e+01  3.545376e+02  2.433616e+06 -6.633171e+05  7.170063e+00 -6.632014e+05 
 1225000 -6.693958e+05  6.246641e+03  1.502830e+02  3.561352e+02  2.433287e+06 -6.629209e+05  7.171031e+00 -6.631492e+05 
 1230000 -6.693938e+05  6.269869e+03 -3.579801e+02  3.574595e+02  2.434190e+06 -6.636678e+05  7.168372e+00 -6.631239e+05 
 1235000 -6.693560e+05  6.289012e+03  1.322838e+02  3.585509e+02  2.433461e+06 -6.628661e+05  7.170520e+00 -6.630670e+05 
 1240000 -6.693524e+05  6.317396e+03  1.187343e+02  3.601691e+02  2.433360e+06 -6.628547e+05  7.170818e+00 -6.630350e+05 
 1245000 -6.692968e+05  6.334382e+03 -5.360503e+00  3.611375e+02  2.433729e+06 -6.629706e+05  7.169729e+00 -6.629624e+05 
 1250000 -6.692983e+05  6.346380e+03 -1.727533e+02  3.618215e+02  2.434326e+06 -6.632144e+05  7.167970e+00 -6.629519e+05 
 1255000 -6.692649e+05  6.396537e+03 -2.383277e+02  3.646811e+02  2.434348e+06 -6.632304e+05  7.167908e+00 -6.628683e+05 
 1260000 -6.692084e+05  6.407254e+03 -1.836038e+02  3.652921e+02  2.434597e+06 -6.630801e+05  7.167174e+00 -6.628011e+05 
 1265000 -6.691826e+05  6.426285e+03 -5.798276e+02  3.663771e+02  2.435555e+06 -6.636377e+05  7.164353e+00 -6.627563e+05 
 1270000 -6.691910e+05  6.429992e+03 -8.477941e+01  3.665884e+02  2.434600e+06 -6.628899e+05  7.167165e+00 -6.627611e+05 
 1275000 -6.691318e+05  6.487305e+03 -4.102586e+01  3.698559e+02  2.434454e+06 -6.627068e+05  7.167593e+00 -6.626444e+05 
 1280000 -6.691259e+05  6.502255e+03  2.120045e+02  3.707083e+02  2.434186e+06 -6.623016e+05  7.168384e+00 -6.626237e+05 
 1285000 -6.691225e+05  6.497587e+03 -2.568641e+01  3.704422e+02  2.434489e+06 -6.626640e+05  7.167492e+00 -6.626249e+05 
 1290000 -6.691218e+05  6.519617e+03 -8.373268e+01  3.716982e+02  2.434666e+06 -6.627294e+05  7.166971e+00 -6.626021e+05 
 1295000 -6.690368e+05  6.552655e+03  9.704143e+01  3.735817e+02  2.434345e+06 -6.623367e+05  7.167916e+00 -6.624842e+05 
 1300000 -6.690386e+05  6.566513e+03 -1.567422e+02  3.743718e+02  2.435117e+06 -6.627103e+05  7.165643e+00 -6.624721e+05 
 1305000 -6.690027e+05  6.612116e+03  9.340548e+01  3.769717e+02  2.434655e+06 -6.622487e+05  7.167003e+00 -6.623906e+05 
 1310000 -6.690052e+05  6.617958e+03  1.281370e+02  3.773048e+02  2.434685e+06 -6.621926e+05  7.166915e+00 -6.623873e+05 
 1315000 -6.689637e+05  6.642056e+03 -2.152801e+02  3.786786e+02  2.435412e+06 -6.626489e+05  7.164776e+00 -6.623216e+05 
 1320000 -6.689697e+05  6.678194e+03 -9.729677e+01  3.807390e+02  2.435285e+06 -6.624394e+05  7.165149e+00 -6.622915e+05 
 1325000 -6.689330e+05  6.693075e+03 -7.954227e+01  3.815874e+02  2.435332e+06 -6.623608e+05  7.165010e+00 -6.622399e+05 
 1330000 -6.689185e+05  6.733400e+03  4.927612e+01  3.838864e+02  2.434650e+06 -6.621102e+05  7.167017e+00 -6.621851e+05 
 1335000 -6.688940e+05  6.728830e+03  6.672791e+01  3.836259e+02  2.435063e+06 -6.620638e+05  7.165802e+00 -6.621652e+05 
 1340000 -6.688849e+05  6.768842e+03 -5.177745e+00  3.859070e+02  2.435114e+06 -6.621239e+05  7.165651e+00 -6.621161e+05 
 1345000 -6.688234e+05  6.758781e+03 -2.803065e+02  3.853334e+02  2.435942e+06 -6.624908e+05  7.163216e+00 -6.620646e+05 
 1350000 -6.688287e+05  6.796643e+03 -9.021917e+01  3.874920e+02  2.435832e+06 -6.621692e+05  7.163541e+00 -6.620321e+05 
 1355000 -6.687604e+05  6.804701e+03  9.165718e+01  3.879514e+02  2.435198e+06 -6.618164e+05  7.165406e+00 -6.619557e+05 
 1360000 -6.688006e+05  6.836822e+03 -1.497014e+02  3.897827e+02  2.436142e+06 -6.621914e+05  7.162628e+00 -6.619638e+05 
 1365000 -6.687708e+05  6.860266e+03  2.328031e+01  3.911193e+02  2.435524e+06 -6.618752e+05  7.164446e+00 -6.619105e+05 
 1370000 -6.687213e+05  6.902993e+03 -1.357275e+02  3.935553e+02  2.436089e+06 -6.620246e+05  7.162783e+00 -6.618183e+05 
 1375000 -6.687138e+05  6.908107e+03  7.228013e+01  3.938468e+02  2.435692e+06 -6.616958e+05  7.163950e+00 -6.618057e+05 
 1380000 -6.686770e+05  6.925520e+03 -1.472364e+02  3.948396e+02  2.436232e+06 -6.619753e+05  7.162365e+00 -6.617515e+05 
 1385000 -6.686802e+05  6.955004e+03 -1.057003e+02  3.965206e+02  2.435944e+06 -6.618859e+05  7.163211e+00 -6.617252e+05 
 1390000 -6.686559e+05  6.981985e+03  2.524114e+02  3.980588e+02  2.435279e+06 -6.612902e+05  7.165166e+00 -6.616739e+05 
 1395000 -6.686362e+05  7.000779e+03  2.523236e+02  3.991303e+02  2.435373e+06 -6.612519e+05  7.164889e+00 -6.616354e+05 
 1400000 -6.685813e+05  7.033738e+03  1.090180e+02  4.010093e+02  2.435977e+06 -6.613818e+05  7.163112e+00 -6.615476e+05 
 1405000 -6.685422e+05  7.018580e+03  1.333370e+02  4.001452e+02  2.435996e+06 -6.613209e+05  7.163057e+00 -6.615236e+05 
 1410000 -6.684993e+05  7.055945e+03  3.404464e+00  4.022754e+02  2.436297e+06 -6.614381e+05  7.162171e+00 -6.614433e+05 
 1415000 -6.685023e+05  7.080532e+03 -5.192679e+00  4.036772e+02  2.436665e+06 -6.614296e+05  7.161090e+00 -6.614217e+05 
 1420000 -6.684629e+05  7.091475e+03 -1.206236e+02  4.043010e+02  2.436896e+06 -6.615548e+05  7.160411e+00 -6.613714e+05 
 1425000 -6.684742e+05  7.121602e+03  3.558096e+02  4.060187e+02  2.435584e+06 -6.608117e+05  7.164268e+00 -6.613526e+05 
 1430000 -6.684479e+05  7.148038e+03 -6.405639e+01  4.075258e+02  2.436852e+06 -6.613973e+05  7.160542e+00 -6.612998e+05 
 1435000 -6.684129e+05  7.147455e+03  4.305750e+01  4.074926e+02  2.436812e+06 -6.611999e+05  7.160660e+00 -6.612654e+05 
 1440000 -6.684125e+05  7.199322e+03 -1.141306e+02  4.104497e+02  2.437273e+06 -6.613868e+05  7.159303e+00 -6.612132e+05 
 1445000 -6.683889e+05  7.210160e+03  4.912131e+02  4.110676e+02  2.435838e+06 -6.604319e+05  7.163521e+00 -6.611787e+05 
 1450000 -6.683856e+05  7.225258e+03 -1.378037e+02  4.119283e+02  2.437078e+06 -6.613700e+05  7.159877e+00 -6.611604e+05 
 1455000 -6.683657e+05  7.225539e+03  4.107869e+01  4.119444e+02  2.437036e+06 -6.610777e+05  7.160002e+00 -6.611402e+05 
 1460000 -6.683082e+05  7.277746e+03  1.578144e+02  4.149208e+02  2.436890e+06 -6.607904e+05  7.160429e+00 -6.610304e+05 
 1465000 -6.682627e+05  7.322870e+03 -1.607915e+01  4.174934e+02  2.437440e+06 -6.609643e+05  7.158813e+00 -6.609398e+05 
 1470000 -6.682709e+05  7.328003e+03 -2.703281e+02  4.177861e+02  2.437650e+06 -6.613542e+05  7.158197e+00 -6.609429e+05 
 1475000 -6.682516e+05  7.353206e+03 -9.423679e+01  4.192230e+02  2.437625e+06 -6.610417e+05  7.158271e+00 -6.608984e+05 
 1480000 -6.681995e+05  7.388859e+03 -9.005371e+01  4.212556e+02  2.437965e+06 -6.609477e+05  7.157272e+00 -6.608106e+05 
 1485000 -6.682251e+05  7.383159e+03 -1.430653e+01  4.209307e+02  2.437531e+06 -6.608637e+05  7.158546e+00 -6.608420e+05 
 1490000 -6.682101e+05  7.444546e+03  4.586854e+01  4.244304e+02  2.437668e+06 -6.606958e+05  7.158144e+00 -6.607656e+05 
 1495000 -6.681533e+05  7.428249e+03  4.912576e+02  4.235013e+02  2.436685e+06 -6.599779e+05  7.161031e+00 -6.607251e+05 
 1500000 -6.681317e+05  7.456517e+03 -2.105573e+01  4.251129e+02  2.437885e+06 -6.607073e+05  7.157507e+00 -6.606752e+05 
 1505000 -6.680950e+05  7.433277e+03 -8.443446e+01  4.237880e+02  2.437680e+06 -6.607902e+05  7.158108e+00 -6.606617e+05 
 1510000 -6.681041e+05  7.508591e+03  5.324239e+02  4.280818e+02  2.436875e+06 -6.597857e+05  7.160472e+00 -6.605955e+05 
 1515000 -6.680532e+05  7.523066e+03 -2.234831e+02  4.289071e+02  2.438247e+06 -6.608703e+05  7.156443e+00 -6.605302e+05 
 1520000 -6.680294e+05  7.555334e+03  2.730125e+02  4.307467e+02  2.437680e+06 -6.600587e+05  7.158107e+00 -6.604740e+05 
 1525000 -6.680164e+05  7.590339e+03  3.528775e+01  4.327424e+02  2.438000e+06 -6.603724e+05  7.157170e+00 -6.604261e+05 
 1530000 -6.679882e+05  7.592585e+03 -2.043182e+02  4.328705e+02  2.438641e+06 -6.607066e+05  7.155287e+00 -6.603956e+05 
 1535000 -6.679801e+05  7.614000e+03  7.806243e+00  4.340914e+02  2.438393e+06 -6.603542e+05  7.156016e+00 -6.603661e+05 
 1540000 -6.679851e+05  7.672588e+03  2.056355e+02  4.374317e+02  2.438271e+06 -6.599996e+05  7.156375e+00 -6.603125e+05 
 1545000 -6.679203e+05  7.629856e+03  7.151388e+01  4.349954e+02  2.438607e+06 -6.601816e+05  7.155387e+00 -6.602904e+05 
 1550000 -6.679225e+05  7.682856e+03  1.099398e+02  4.380170e+02  2.438308e+06 -6.600723e+05  7.156264e+00 -6.602396e+05 
 1555000 -6.678788e+05  7.723039e+03  3.748020e+02  4.403080e+02  2.437804e+06 -6.595854e+05  7.157745e+00 -6.601557e+05 
 1560000 -6.678305e+05  7.680101e+03  2.071050e+02  4.378600e+02  2.438631e+06 -6.598352e+05  7.155318e+00 -6.601504e+05 
 1565000 -6.678339e+05  7.739704e+03  3.505786e+00  4.412581e+02  2.438557e+06 -6.600888e+05  7.155533e+00 -6.600942e+05 
 1570000 -6.677780e+05  7.748890e+03 -7.166919e+01  4.417818e+02  2.439149e+06 -6.601382e+05  7.153799e+00 -6.600291e+05 
 1575000 -6.677833e+05  7.785648e+03 -9.231217e+01  4.438774e+02  2.439377e+06 -6.601382e+05  7.153129e+00 -6.599977e+05 
 1580000 -6.677592e+05  7.796008e+03  1.050325e+02  4.444681e+02  2.438881e+06 -6.598033e+05  7.154583e+00 -6.599631e+05 
 1585000 -6.677406e+05  7.835750e+03 -1.679017e+02  4.467339e+02  2.439424e+06 -6.601605e+05  7.152992e+00 -6.599049e+05 
 1590000 -6.677245e+05  7.858805e+03  1.826921e+01  4.480483e+02  2.439327e+06 -6.598379e+05  7.153277e+00 -6.598657e+05 
 1595000 -6.676866e+05  7.834799e+03 -2.964951e+02  4.466796e+02  2.439781e+06 -6.603033e+05  7.151946e+00 -6.598518e+05 
 1600000 -6.676950e+05  7.874278e+03  2.129678e+02  4.489304e+02  2.438982e+06 -6.594965e+05  7.154287e+00 -6.598207e+05 
 1605000 -6.676676e+05  7.890094e+03 -3.376427e+02  4.498321e+02  2.440094e+06 -6.602917e+05  7.151028e+00 -6.597775e+05 
 1610000 -6.676083e+05  7.937268e+03 -1.920298e+01  4.525217e+02  2.439672e+06 -6.597003e+05  7.152265e+00 -6.596711e+05 
 1615000 -6.676098e+05  7.977020e+03  1.229410e+02  4.547880e+02  2.439598e+06 -6.594455e+05  7.152480e+00 -6.596327e+05 
 1620000 -6.675717e+05  7.971942e+03  8.983105e+01  4.544985e+02  2.439519e+06 -6.594630e+05  7.152714e+00 -6.595998e+05 
 1625000 -6.675387e+05  7.980157e+03  8.368273e+01  4.549669e+02  2.439637e+06 -6.594311e+05  7.152366e+00 -6.595585e+05 
 1630000 -6.675081e+05  8.036534e+03  2.432974e+01  4.581810e+02  2.439923e+06 -6.594345e+05  7.151528e+00 -6.594715e+05 
 1635000 -6.675158e+05  8.048310e+03  6.548945e+01  4.588524e+02  2.439828e+06 -6.593678e+05  7.151807e+00 -6.594675e+05 
 1640000 -6.674889e+05  8.045910e+03  2.730351e+02  4.587156e+02  2.439269e+06 -6.590273e+05  7.153447e+00 -6.594430e+05 
 1645000 -6.674475e+05  8.068946e+03  2.677572e+02  4.600289e+02  2.439262e+06 -6.589709e+05  7.153467e+00 -6.593786e+05 
 1650000 -6.674272e+05  8.117091e+03 -7.940804e+00  4.627738e+02  2.440251e+06 -6.593222e+05  7.150568e+00 -6.593101e+05 
 1655000 -6.673956e+05  8.135204e+03 -4.195667e+02  4.638064e+02  2.441285e+06 -6.598997e+05  7.147538e+00 -6.592604e+05 
 1660000 -6.673877e+05  8.165793e+03  8.401607e+01  4.655504e+02  2.439853e+06 -6.590940e+05  7.151735e+00 -6.592219e+05 
 1665000 -6.673344e+05  8.190671e+03  1.104282e+02  4.669687e+02  2.440115e+06 -6.589756e+05  7.150967e+00 -6.591438e+05 
 1670000 -6.673169e+05  8.198689e+03 -1.273674e+02  4.674259e+02  2.440645e+06 -6.593122e+05  7.149413e+00 -6.591182e+05 
 1675000 -6.673157e+05  8.206352e+03  6.301593e+01  4.678627e+02  2.440502e+06 -6.590133e+05  7.149831e+00 -6.591093e+05 
 1680000 -6.672811e+05  8.253225e+03 -2.110268e+02  4.705351e+02  2.441193e+06 -6.593494e+05  7.147809e+00 -6.590279e+05 
 1685000 -6.672257e+05  8.270075e+03  1.090174e+02  4.714957e+02  2.440367e+06 -6.587896e+05  7.150228e+00 -6.589557e+05 
 1690000 -6.672602e+05  8.302079e+03  7.033154e+01  4.733204e+02  2.440847e+06 -6.588510e+05  7.148821e+00 -6.589581e+05 
 1695000 -6.671905e+05  8.282747e+03 -1.409091e+02  4.722182e+02  2.441204e+06 -6.591225e+05  7.147777e+00 -6.589078e+05 
 1700000 -6.671923e+05  8.332701e+03 -1.704887e+02  4.750662e+02  2.441568e+06 -6.591194e+05  7.146711e+00 -6.588596e+05 
 1705000 -6.671541e+05  8.363804e+03 -1.184469e+02  4.768394e+02  2.441412e+06 -6.589708e+05  7.147166e+00 -6.587903e+05 
 1710000 -6.671884e+05  8.377757e+03  4.956771e-02  4.776350e+02  2.441265e+06 -6.588106e+05  7.147596e+00 -6.588107e+05 
 1715000 -6.671342e+05  8.406853e+03 -3.924431e+00  4.792938e+02  2.441340e+06 -6.587333e+05  7.147378e+00 -6.587273e+05 
 1720000 -6.671125e+05  8.396461e+03 -1.483591e+01  4.787013e+02  2.441507e+06 -6.587387e+05  7.146888e+00 -6.587161e+05 
 1725000 -6.670832e+05  8.472841e+03 -9.601402e+01  4.830559e+02  2.441443e+06 -6.587566e+05  7.147075e+00 -6.586103e+05 
 1730000 -6.670830e+05  8.479184e+03 -1.270290e+02  4.834175e+02  2.441549e+06 -6.587974e+05  7.146767e+00 -6.586038e+05 
 1735000 -6.670368e+05  8.484432e+03  1.456334e+02  4.837167e+02  2.441294e+06 -6.583304e+05  7.147513e+00 -6.585523e+05 
 1740000 -6.670036e+05  8.534664e+03  2.570908e+01  4.865806e+02  2.441478e+06 -6.584298e+05  7.146974e+00 -6.584689e+05 
 1745000 -6.669810e+05  8.513500e+03 -1.107278e+02  4.853739e+02  2.441918e+06 -6.586362e+05  7.145687e+00 -6.584675e+05 
 1750000 -6.669635e+05  8.523653e+03  2.387981e+02  4.859528e+02  2.441105e+06 -6.580760e+05  7.148065e+00 -6.584399e+05 
 1755000 -6.669199e+05  8.560051e+03 -1.317271e+02  4.880279e+02  2.442379e+06 -6.585606e+05  7.144337e+00 -6.583598e+05 
 1760000 -6.669006e+05  8.617884e+03  3.376533e+01  4.913251e+02  2.442036e+06 -6.582313e+05  7.145340e+00 -6.582827e+05 
 1765000 -6.668853e+05  8.619212e+03 -1.290702e+02  4.914008e+02  2.442079e+06 -6.584628e+05  7.145216e+00 -6.582661e+05 
 1770000 -6.668422e+05  8.629873e+03 -2.484930e+02  4.920086e+02  2.442868e+06 -6.585913e+05  7.142907e+00 -6.582124e+05 
 1775000 -6.668130e+05  8.651801e+03  1.049142e+01  4.932588e+02  2.442293e+06 -6.581452e+05  7.144588e+00 -6.581612e+05 
 1780000 -6.668172e+05  8.685564e+03  2.174538e+02  4.951837e+02  2.442116e+06 -6.578002e+05  7.145107e+00 -6.581317e+05 
 1785000 -6.668450e+05  8.729189e+03  9.433591e+01  4.976709e+02  2.442232e+06 -6.579720e+05  7.144766e+00 -6.581158e+05 
 1790000 -6.667654e+05  8.726084e+03 -7.709902e+01  4.974938e+02  2.442739e+06 -6.581569e+05  7.143284e+00 -6.580393e+05 
 1795000 -6.667480e+05  8.733162e+03 -7.056807e+01  4.978974e+02  2.442806e+06 -6.581224e+05  7.143087e+00 -6.580148e+05 
 1800000 -6.666820e+05  8.740624e+03 -1.487570e+02  4.983228e+02  2.443454e+06 -6.581682e+05  7.141194e+00 -6.579414e+05 
 1805000 -6.666858e+05  8.816491e+03 -3.346006e+02  5.026481e+02  2.443254e+06 -6.583796e+05  7.141779e+00 -6.578694e+05 
 1810000 -6.666955e+05  8.805851e+03  1.660592e+02  5.020415e+02  2.442409e+06 -6.576365e+05  7.144250e+00 -6.578896e+05 
 1815000 -6.666627e+05  8.823615e+03  2.192262e+02  5.030543e+02  2.442197e+06 -6.575049e+05  7.144869e+00 -6.578391e+05 
 1820000 -6.666178e+05  8.873033e+03  7.644919e+01  5.058717e+02  2.442816e+06 -6.576282e+05  7.143058e+00 -6.577448e+05 
 1825000 -6.665890e+05  8.863973e+03 -1.338516e+02  5.053552e+02  2.443463e+06 -6.579292e+05  7.141169e+00 -6.577250e+05 
 1830000 -6.665630e+05  8.872735e+03  1.932096e+02  5.058547e+02  2.442967e+06 -6.573957e+05  7.142618e+00 -6.576903e+05 
 1835000 -6.665305e+05  8.931928e+03 -1.978099e+02  5.092294e+02  2.443569e+06 -6.579002e+05  7.140858e+00 -6.575985e+05 
 1840000 -6.665312e+05  8.921164e+03  2.245339e+02  5.086158e+02  2.442793e+06 -6.572677e+05  7.143125e+00 -6.576101e+05 
 1845000 -6.665109e+05  8.958325e+03 -2.092163e+02  5.107344e+02  2.443757e+06 -6.578717e+05  7.140307e+00 -6.575525e+05 
 1850000 -6.664422e+05  9.017518e+03  3.403998e+02  5.141092e+02  2.442835e+06 -6.569057e+05  7.143002e+00 -6.574247e+05 
 1855000 -6.664546e+05  9.041490e+03  1.616169e+01  5.154759e+02  2.443382e+06 -6.573885e+05  7.141403e+00 -6.574131e+05 
 1860000 -6.664814e+05  9.026124e+03 -1.723996e+02  5.145998e+02  2.444043e+06 -6.577183e+05  7.139474e+00 -6.574553e+05 
 1865000 -6.664245e+05  9.046629e+03  1.570578e+02  5.157688e+02  2.443218e+06 -6.571384e+05  7.141883e+00 -6.573779e+05 
 1870000 -6.663672e+05  9.071822e+03  2.430060e+02  5.172052e+02  2.443430e+06 -6.569248e+05  7.141265e+00 -6.572954e+05 
 1875000 -6.663634e+05  9.060686e+03  1.899879e+02  5.165702e+02  2.443481e+06 -6.570129e+05  7.141114e+00 -6.573027e+05 
 1880000 -6.663847e+05  9.139613e+03  2.940945e+02  5.210701e+02  2.443236e+06 -6.567966e+05  7.141830e+00 -6.572451e+05 
 1885000 -6.663766e+05  9.119379e+03  1.442114e+02  5.199165e+02  2.443527e+06 -6.570373e+05  7.140981e+00 -6.572572e+05 
 1890000 -6.662706e+05  9.159440e+03  3.110829e+02  5.222005e+02  2.443597e+06 -6.566367e+05  7.140776e+00 -6.571112e+05 
 1895000 -6.662927e+05  9.188509e+03  2.960944e+02  5.238577e+02  2.443715e+06 -6.566526e+05  7.140430e+00 -6.571042e+05 
 1900000 -6.662168e+05  9.231610e+03 -3.778399e+01  5.263150e+02  2.444459e+06 -6.570428e+05  7.138256e+00 -6.569852e+05 
 1905000 -6.662244e+05  9.227358e+03 -9.705851e+01  5.260726e+02  2.444705e+06 -6.571452e+05  7.137541e+00 -6.569971e+05 
 1910000 -6.661530e+05  9.230560e+03 -8.677684e+01  5.262552e+02  2.444946e+06 -6.570549e+05  7.136836e+00 -6.569224e+05 
 1915000 -6.662005e+05  9.262449e+03  2.055930e+02  5.280732e+02  2.444081e+06 -6.566244e+05  7.139362e+00 -6.569380e+05 
 1920000 -6.661385e+05  9.289481e+03 -7.007024e+01  5.296144e+02  2.444913e+06 -6.569559e+05  7.136932e+00 -6.568490e+05 
 1925000 -6.661427e+05  9.318013e+03  6.588085e+01  5.312410e+02  2.444748e+06 -6.567242e+05  7.137415e+00 -6.568247e+05 
 1930000 -6.661168e+05  9.290996e+03 -2.072882e+01  5.297007e+02  2.444928e+06 -6.568575e+05  7.136889e+00 -6.568258e+05 
 1935000 -6.660902e+05  9.358368e+03  5.453019e+01  5.335418e+02  2.444542e+06 -6.566487e+05  7.138015e+00 -6.567319e+05 
 1940000 -6.660084e+05  9.388787e+03 -8.675549e+01  5.352761e+02  2.445476e+06 -6.567521e+05  7.135289e+00 -6.566196e+05 
 1945000 -6.660338e+05  9.380775e+03  8.414983e+01  5.348193e+02  2.444904e+06 -6.565246e+05  7.136959e+00 -6.566530e+05 
 1950000 -6.660422e+05  9.429773e+03 -1.225857e+02  5.376127e+02  2.445435e+06 -6.567995e+05  7.135410e+00 -6.566124e+05 
 1955000 -6.660001e+05  9.435498e+03 -1.969766e+02  5.379391e+02  2.445605e+06 -6.568653e+05  7.134913e+00 -6.565646e+05 
 1960000 -6.659543e+05  9.481216e+03 -3.587040e+01  5.405456e+02  2.445350e+06 -6.565278e+05  7.135657e+00 -6.564731e+05 
 1965000 -6.659397e+05  9.481798e+03  1.610371e+02  5.405788e+02  2.445060e+06 -6.562122e+05  7.136503e+00 -6.564579e+05 
 1970000 -6.659444e+05  9.497423e+03  2.337096e+02  5.414696e+02  2.444744e+06 -6.560903e+05  7.137425e+00 -6.564470e+05 
 1975000 -6.659087e+05  9.514049e+03  3.114366e+02  5.424175e+02  2.444812e+06 -6.559194e+05  7.137228e+00 -6.563946e+05 
 1980000 -6.658919e+05  9.569695e+03  7.664790e+01  5.455900e+02  2.445510e+06 -6.562052e+05  7.135191e+00 -6.563222e+05 
 1985000 -6.658513e+05  9.563869e+03  3.474851e+02  5.452578e+02  2.445008e+06 -6.557571e+05  7.136654e+00 -6.562874e+05 
 1990000 -6.657981e+05  9.561418e+03  5.241589e+01  5.451181e+02  2.445533e+06 -6.561567e+05  7.135122e+00 -6.562367e+05 
 1995000 -6.658102e+05  9.632394e+03 -2.102710e+02  5.491646e+02  2.446269e+06 -6.564988e+05  7.132977e+00 -6.561778e+05 
 2000000 -6.657550e+05  9.635909e+03  1.379502e+02  5.493650e+02  2.445724e+06 -6.559085e+05  7.134566e+00 -6.561191e+05 
 2005000 -6.656941e+05  9.692166e+03  6.551359e+01  5.525724e+02  2.446187e+06 -6.559019e+05  7.133215e+00 -6.560019e+05 
 2010000 -6.657516e+05  9.697005e+03 -2.722138e+02  5.528482e+02  2.446740e+06 -6.564703e+05  7.131603e+00 -6.560546e+05 
 2015000 -6.656845e+05  9.723337e+03  1.422358e+02  5.543495e+02  2.446014e+06 -6.557440e+05  7.133719e+00 -6.559612e+05 
 2020000 -6.656582e+05  9.735954e+03 -1.589963e+02  5.550688e+02  2.446713e+06 -6.561650e+05  7.131681e+00 -6.559222e+05 
 2025000 -6.656372e+05  9.813433e+03  3.653413e+01  5.594861e+02  2.446017e+06 -6.557680e+05  7.133711e+00 -6.558238e+05 
 2030000 -6.656307e+05  9.779781e+03 -3.305586e+02  5.575675e+02  2.447502e+06 -6.563559e+05  7.129382e+00 -6.558509e+05 
 2035000 -6.655678e+05  9.792670e+03  1.833468e+02  5.583023e+02  2.446187e+06 -6.554952e+05  7.133214e+00 -6.557752e+05 
 2040000 -6.655979e+05  9.847132e+03  2.738585e+01  5.614073e+02  2.446354e+06 -6.557089e+05  7.132729e+00 -6.557507e+05 
 2045000 -6.655593e+05  9.833429e+03 -2.520507e+02  5.606261e+02  2.447062e+06 -6.561108e+05  7.130664e+00 -6.557259e+05 
 2050000 -6.655122e+05  9.891560e+03 -1.293175e+02  5.639403e+02  2.446973e+06 -6.558181e+05  7.130925e+00 -6.556206e+05 
 2055000 -6.655028e+05  9.888879e+03 -3.187922e+00  5.637874e+02  2.446987e+06 -6.556188e+05  7.130884e+00 -6.556139e+05 
 2060000 -6.654690e+05  9.867042e+03  8.496971e+01  5.625424e+02  2.446732e+06 -6.554722e+05  7.131626e+00 -6.556020e+05 
 2065000 -6.654467e+05  9.956260e+03 -4.673913e+01  5.676290e+02  2.446820e+06 -6.555618e+05  7.131369e+00 -6.554904e+05 
 2070000 -6.654427e+05  9.948217e+03 -3.763610e+01  5.671704e+02  2.447309e+06 -6.555520e+05  7.129945e+00 -6.554945e+05 
 2075000 -6.654016e+05  9.962390e+03 -2.667492e+02  5.679784e+02  2.447653e+06 -6.558467e+05  7.128944e+00 -6.554392e+05 
 2080000 -6.654010e+05  9.999898e+03 -1.697819e+02  5.701169e+02  2.447678e+06 -6.556604e+05  7.128870e+00 -6.554011e+05 
 2085000 -6.653256e+05  9.982420e+03  1.646012e+02  5.691204e+02  2.447166e+06 -6.550917e+05  7.130362e+00 -6.553432e+05 
 2090000 -6.653554e+05  1.002461e+04  3.078685e+02  5.715258e+02  2.446599e+06 -6.548607e+05  7.132015e+00 -6.553308e+05 
 2095000 -6.653222e+05  1.005658e+04 -2.198993e+02  5.733482e+02  2.448188e+06 -6.556016e+05  7.127386e+00 -6.552656e+05 
 2100000 -6.652783e+05  1.005243e+04 -1.200512e+02  5.731120e+02  2.448055e+06 -6.554093e+05  7.127774e+00 -6.552259e+05 
 2105000 -6.653039e+05  1.009919e+04  2.728012e+02  5.757780e+02  2.447066e+06 -6.547880e+05  7.130653e+00 -6.552047e+05 
 2110000 -6.652348e+05  1.010886e+04 -2.056538e+02  5.763292e+02  2.448179e+06 -6.554402e+05  7.127411e+00 -6.551259e+05 
 2115000 -6.652306e+05  1.013656e+04  9.956139e+01  5.779085e+02  2.447495e+06 -6.549419e+05  7.129402e+00 -6.550940e+05 
 2120000 -6.651692e+05  1.019797e+04 -2.436878e+02  5.814092e+02  2.448505e+06 -6.553437e+05  7.126462e+00 -6.549713e+05 
 2125000 -6.651516e+05  1.015593e+04  2.917650e+02  5.790126e+02  2.447410e+06 -6.545500e+05  7.129650e+00 -6.549957e+05 
 2130000 -6.651153e+05  1.023017e+04  5.318843e+01  5.832451e+02  2.448327e+06 -6.548038e+05  7.126980e+00 -6.548851e+05 
 2135000 -6.651156e+05  1.022919e+04 -1.868086e+02  5.831892e+02  2.448513e+06 -6.551719e+05  7.126440e+00 -6.548864e+05 
 2140000 -6.650121e+05  1.024571e+04  3.113176e+01  5.841310e+02  2.448445e+06 -6.547188e+05  7.126637e+00 -6.547664e+05 
 2145000 -6.650844e+05  1.028612e+04  1.292413e+02  5.864350e+02  2.447923e+06 -6.546009e+05  7.128156e+00 -6.547983e+05 
 2150000 -6.650719e+05  1.028084e+04  2.697435e+02  5.861340e+02  2.447714e+06 -6.543789e+05  7.128765e+00 -6.547910e+05 
 2155000 -6.650270e+05  1.027421e+04 -1.751658e+02  5.857562e+02  2.448913e+06 -6.550205e+05  7.125274e+00 -6.547528e+05 
 2160000 -6.649968e+05  1.031600e+04 -3.010806e+02  5.881384e+02  2.449191e+06 -6.551411e+05  7.124467e+00 -6.546808e+05 
 2165000 -6.649876e+05  1.037582e+04 -2.658819e+02  5.915492e+02  2.449563e+06 -6.550183e+05  7.123385e+00 -6.546118e+05 
 2170000 -6.649349e+05  1.037215e+04 -4.064123e+02  5.913399e+02  2.449729e+06 -6.551842e+05  7.122901e+00 -6.545628e+05 
 2175000 -6.649498e+05  1.043729e+04 -6.752922e+01  5.950533e+02  2.449088e+06 -6.546157e+05  7.124766e+00 -6.545125e+05 
 2180000 -6.648944e+05  1.043002e+04  1.351809e+02  5.946390e+02  2.448726e+06 -6.542578e+05  7.125819e+00 -6.544644e+05 
 2185000 -6.648977e+05  1.044427e+04  1.931476e+02  5.954515e+02  2.448637e+06 -6.541582e+05  7.126079e+00 -6.544534e+05 
 2190000 -6.648469e+05  1.047781e+04 -4.193310e+01  5.973639e+02  2.449550e+06 -6.544332e+05  7.123423e+00 -6.543691e+05 
 2195000 -6.648273e+05  1.050211e+04 -2.240076e+01  5.987490e+02  2.449254e+06 -6.543594e+05  7.124282e+00 -6.543252e+05 
 2200000 -6.647999e+05  1.053486e+04  2.977352e+02  6.006163e+02  2.448659e+06 -6.538100e+05  7.126015e+00 -6.542651e+05 
 2205000 -6.647080e+05  1.050298e+04 -3.397670e+02  5.987987e+02  2.450603e+06 -6.547247e+05  7.120361e+00 -6.542050e+05 
 2210000 -6.647730e+05  1.056989e+04  5.065368e+02  6.026137e+02  2.448311e+06 -6.534290e+05  7.127028e+00 -6.542031e+05 
 2215000 -6.647599e+05  1.061560e+04 -2.611447e+02  6.052196e+02  2.450448e+06 -6.545437e+05  7.120813e+00 -6.541443e+05 
 2220000 -6.647039e+05  1.062219e+04 -7.775766e+01  6.055954e+02  2.449886e+06 -6.542006e+05  7.122445e+00 -6.540817e+05 
 2225000 -6.647266e+05  1.060634e+04  5.158797e+02  6.046916e+02  2.448959e+06 -6.533317e+05  7.125141e+00 -6.541202e+05 
 2230000 -6.646794e+05  1.069919e+04 -7.780862e+01  6.099852e+02  2.449579e+06 -6.540992e+05  7.123339e+00 -6.539802e+05 
 2235000 -6.646624e+05  1.066332e+04 -4.285380e+02  6.079402e+02  2.450743e+06 -6.546545e+05  7.119956e+00 -6.539990e+05 
 2240000 -6.645859e+05  1.070457e+04  1.797072e+01  6.102916e+02  2.450252e+06 -6.538539e+05  7.121383e+00 -6.538813e+05 
 2245000 -6.645973e+05  1.072150e+04  1.440675e+02  6.112571e+02  2.449831e+06 -6.536555e+05  7.122605e+00 -6.538758e+05 
 2250000 -6.645483e+05  1.071166e+04  1.472045e+02  6.106958e+02  2.449973e+06 -6.536116e+05  7.122192e+00 -6.538367e+05 
 2255000 -6.645423e+05  1.076836e+04  1.087834e+02  6.139285e+02  2.450219e+06 -6.536076e+05  7.121478e+00 -6.537740e+05 
 2260000 -6.645329e+05  1.074529e+04  2.300127e+02  6.126131e+02  2.449980e+06 -6.534359e+05  7.122171e+00 -6.537876e+05 
 2265000 -6.645323e+05  1.081659e+04 -6.534223e+01  6.166781e+02  2.450431e+06 -6.538157e+05  7.120861e+00 -6.537158e+05 
 2270000 -6.644727e+05  1.079217e+04 -3.418587e+01  6.152858e+02  2.450509e+06 -6.537328e+05  7.120635e+00 -6.536805e+05 
 2275000 -6.644400e+05  1.078872e+04  2.099249e+02  6.150895e+02  2.450135e+06 -6.533302e+05  7.121720e+00 -6.536513e+05 
 2280000 -6.644068e+05  1.087378e+04 -4.340855e+01  6.199390e+02  2.450805e+06 -6.535994e+05  7.119773e+00 -6.535330e+05 
 2285000 -6.644090e+05  1.086647e+04 -1.071904e+01  6.195219e+02  2.450497e+06 -6.535589e+05  7.120671e+00 -6.535425e+05 
 2290000 -6.643560e+05  1.094862e+04  3.726288e+01  6.242056e+02  2.450891e+06 -6.533504e+05  7.119526e+00 -6.534074e+05 
 2295000 -6.643618e+05  1.091343e+04 -5.515339e+01  6.221996e+02  2.451213e+06 -6.535327e+05  7.118590e+00 -6.534483e+05 
 2300000 -6.643582e+05  1.094217e+04  2.528168e+02  6.238380e+02  2.450490e+06 -6.530293e+05  7.120689e+00 -6.534160e+05 
 2305000 -6.643043e+05  1.101776e+04 -7.461365e+01  6.281478e+02  2.451146e+06 -6.534007e+05  7.118784e+00 -6.532866e+05 
 2310000 -6.643271e+05  1.097992e+04 -5.944780e+01  6.259899e+02  2.451311e+06 -6.534381e+05  7.118304e+00 -6.533472e+05 
 2315000 -6.642372e+05  1.103122e+04  4.741637e+02  6.289150e+02  2.450481e+06 -6.524807e+05  7.120716e+00 -6.532059e+05 
 2320000 -6.641975e+05  1.106097e+04  4.552860e+01  6.306108e+02  2.451331e+06 -6.530669e+05  7.118246e+00 -6.531366e+05 
 2325000 -6.642052e+05  1.102995e+04 -7.933641e+01  6.288422e+02  2.451547e+06 -6.532967e+05  7.117619e+00 -6.531753e+05 
 2330000 -6.641398e+05  1.112011e+04 -1.347847e+02  6.339828e+02  2.452065e+06 -6.532260e+05  7.116115e+00 -6.530197e+05 
 2335000 -6.641221e+05  1.113866e+04 -2.865872e+02  6.350400e+02  2.452461e+06 -6.534221e+05  7.114966e+00 -6.529834e+05 
 2340000 -6.641252e+05  1.113911e+04 -3.069020e+02  6.350658e+02  2.452343e+06 -6.534559e+05  7.115309e+00 -6.529861e+05 
 2345000 -6.640987e+05  1.111957e+04 -9.916236e+01  6.339517e+02  2.451890e+06 -6.531309e+05  7.116623e+00 -6.529792e+05 
 2350000 -6.640699e+05  1.119446e+04 -8.184585e+01  6.382213e+02  2.452201e+06 -6.530007e+05  7.115721e+00 -6.528754e+05 
 2355000 -6.640431e+05  1.121163e+04 -4.040121e+02  6.392003e+02  2.453135e+06 -6.534501e+05  7.113011e+00 -6.528315e+05 
 2360000 -6.640262e+05  1.123910e+04 -4.902991e+01  6.407666e+02  2.452405e+06 -6.528621e+05  7.115130e+00 -6.527871e+05 
 2365000 -6.639961e+05  1.125189e+04  7.048632e+01  6.414960e+02  2.451859e+06 -6.526363e+05  7.116714e+00 -6.527442e+05 
 2370000 -6.639560e+05  1.121746e+04  4.075876e+02  6.395328e+02  2.451618e+06 -6.521149e+05  7.117413e+00 -6.527385e+05 
 2375000 -6.639246e+05  1.127356e+04 -1.540992e+02  6.427312e+02  2.452967e+06 -6.528870e+05  7.113500e+00 -6.526510e+05 
 2380000 -6.639460e+05  1.123845e+04 -2.754704e+02  6.407297e+02  2.452874e+06 -6.531292e+05  7.113769e+00 -6.527075e+05 
 2385000 -6.638716e+05  1.132325e+04  2.218517e+02  6.455643e+02  2.452180e+06 -6.522088e+05  7.115782e+00 -6.525484e+05 
 2390000 -6.638411e+05  1.129914e+04 -3.174954e+02  6.441897e+02  2.453413e+06 -6.530281e+05  7.112207e+00 -6.525419e+05 
 2395000 -6.638464e+05  1.139190e+04  5.310498e+01  6.494783e+02  2.452514e+06 -6.523732e+05  7.114814e+00 -6.524545e+05 
 2400000 -6.638101e+05  1.139820e+04 -1.761264e+02  6.498375e+02  2.453457e+06 -6.526816e+05  7.112080e+00 -6.524119e+05 
 2405000 -6.638079e+05  1.145614e+04  2.747252e+01  6.531407e+02  2.452943e+06 -6.523097e+05  7.113569e+00 -6.523518e+05 
 2410000 -6.637746e+05  1.136764e+04 -1.160028e+01  6.480948e+02  2.453049e+06 -6.524247e+05  7.113260e+00 -6.524070e+05 
 2415000 -6.637705e+05  1.142964e+04 -2.030556e+02  6.516294e+02  2.453428e+06 -6.526518e+05  7.112163e+00 -6.523408e+05 
 2420000 -6.636785e+05  1.149193e+04  1.614044e+02  6.551810e+02  2.453014e+06 -6.519394e+05  7.113362e+00 -6.521865e+05 
 2425000 -6.636719e+05  1.151539e+04  6.494187e+02  6.565183e+02  2.451760e+06 -6.511628e+05  7.117002e+00 -6.521565e+05 
 2430000 -6.636500e+05  1.152200e+04  3.264540e+01  6.568956e+02  2.453400e+06 -6.520780e+05  7.112243e+00 -6.521280e+05 
 2435000 -6.636877e+05  1.153504e+04 -1.433094e+02  6.576387e+02  2.453771e+06 -6.523721e+05  7.111167e+00 -6.521526e+05 
 2440000 -6.636477e+05  1.151235e+04 -2.276771e+02  6.563453e+02  2.453881e+06 -6.524841e+05  7.110848e+00 -6.521354e+05 
 2445000 -6.636189e+05  1.161768e+04 -1.483170e+02  6.623504e+02  2.453817e+06 -6.522283e+05  7.111034e+00 -6.520012e+05 
 2450000 -6.635497e+05  1.159863e+04 -1.511144e+02  6.612640e+02  2.454033e+06 -6.521826e+05  7.110409e+00 -6.519511e+05 
 2455000 -6.635781e+05  1.171096e+04  4.458844e+01  6.676685e+02  2.453617e+06 -6.517989e+05  7.111615e+00 -6.518672e+05 
 2460000 -6.635525e+05  1.170282e+04  3.011307e+02  6.672042e+02  2.453414e+06 -6.513886e+05  7.112204e+00 -6.518497e+05 
 2465000 -6.635390e+05  1.170701e+04  3.471441e+02  6.674430e+02  2.453256e+06 -6.513004e+05  7.112661e+00 -6.518320e+05 
 2470000 -6.634581e+05  1.176141e+04  1.717396e+00  6.705448e+02  2.454160e+06 -6.516940e+05  7.110041e+00 -6.516967e+05 
 2475000 -6.634130e+05  1.170942e+04 -4.042679e+02  6.675805e+02  2.455070e+06 -6.523231e+05  7.107406e+00 -6.517036e+05 
 2480000 -6.634196e+05  1.171310e+04  2.821879e+02  6.677906e+02  2.453953e+06 -6.512743e+05  7.110641e+00 -6.517065e+05 
 2485000 -6.633904e+05  1.178113e+04 -6.333601e+01  6.716688e+02  2.454639e+06 -6.517063e+05  7.108654e+00 -6.516093e+05 
 2490000 -6.633871e+05  1.177112e+04 -1.613838e+01  6.710982e+02  2.454394e+06 -6.516407e+05  7.109363e+00 -6.516160e+05 
 2495000 -6.633945e+05  1.179393e+04 -5.695298e+02  6.723988e+02  2.455971e+06 -6.524736e+05  7.104800e+00 -6.516006e+05 
 2500000 -6.633136e+05  1.184424e+04  4.009569e+01  6.752669e+02  2.454329e+06 -6.514080e+05  7.109550e+00 -6.514694e+05 
 2505000 -6.633402e+05  1.185318e+04 -1.771001e+02  6.757767e+02  2.454823e+06 -6.517584e+05  7.108120e+00 -6.514870e+05 
 2510000 -6.632432e+05  1.189927e+04 -2.567185e+01  6.784044e+02  2.454819e+06 -6.513833e+05  7.108132e+00 -6.513439e+05 
 2515000 -6.632333e+05  1.193180e+04  3.570913e+02  6.802593e+02  2.454132e+06 -6.507545e+05  7.110121e+00 -6.513015e+05 
 2520000 -6.632053e+05  1.193599e+04  9.925604e+00  6.804980e+02  2.454784e+06 -6.512541e+05  7.108233e+00 -6.512693e+05 
 2525000 -6.632271e+05  1.195943e+04 -1.270308e+02  6.818345e+02  2.455442e+06 -6.514623e+05  7.106328e+00 -6.512676e+05 
 2530000 -6.631630e+05  1.198321e+04 -2.525426e+02  6.831901e+02  2.455783e+06 -6.515669e+05  7.105341e+00 -6.511798e+05 
 2535000 -6.631156e+05  1.201312e+04 -2.684710e+02  6.848950e+02  2.455676e+06 -6.515140e+05  7.105650e+00 -6.511025e+05 
 2540000 -6.631158e+05  1.201765e+04 -3.115920e+02  6.851536e+02  2.456118e+06 -6.515758e+05  7.104372e+00 -6.510981e+05 
 2545000 -6.630713e+05  1.202607e+04 -2.884853e+02  6.856333e+02  2.456234e+06 -6.514875e+05  7.104036e+00 -6.510452e+05 
 2550000 -6.630459e+05  1.202697e+04 -3.661884e+02  6.856848e+02  2.455939e+06 -6.515803e+05  7.104892e+00 -6.510190e+05 
 2555000 -6.630035e+05  1.209710e+04 -1.285537e+02  6.896829e+02  2.456033e+06 -6.511035e+05  7.104618e+00 -6.509064e+05 
 2560000 -6.630348e+05  1.206890e+04 -1.089361e+02  6.880755e+02  2.455964e+06 -6.511329e+05  7.104820e+00 -6.509659e+05 
 2565000 -6.629567e+05  1.212928e+04  2.214181e+02  6.915175e+02  2.455419e+06 -6.504881e+05  7.106394e+00 -6.508274e+05 
 2570000 -6.629938e+05  1.215327e+04  1.814829e+02  6.928855e+02  2.455583e+06 -6.505624e+05  7.105920e+00 -6.508405e+05 
 2575000 -6.629680e+05  1.218801e+04 -5.048754e+01  6.948660e+02  2.456337e+06 -6.508574e+05  7.103740e+00 -6.507800e+05 
 2580000 -6.629374e+05  1.217598e+04 -7.797483e+02  6.941800e+02  2.457520e+06 -6.519575e+05  7.100319e+00 -6.507614e+05 
 2585000 -6.628279e+05  1.222731e+04  1.438278e+02  6.971065e+02  2.456029e+06 -6.503801e+05  7.104629e+00 -6.506006e+05 
 2590000 -6.628310e+05  1.223841e+04  3.213697e+02  6.977393e+02  2.455464e+06 -6.501001e+05  7.106264e+00 -6.505926e+05 
 2595000 -6.628199e+05  1.222392e+04 -1.787750e+02  6.969131e+02  2.456440e+06 -6.508701e+05  7.103441e+00 -6.505960e+05 
 2600000 -6.628138e+05  1.225860e+04  1.661129e+02  6.988908e+02  2.456317e+06 -6.503005e+05  7.103798e+00 -6.505552e+05 
 2605000 -6.627951e+05  1.230970e+04 -1.941036e+02  7.018036e+02  2.457020e+06 -6.507831e+05  7.101765e+00 -6.504854e+05 
 2610000 -6.627172e+05  1.236540e+04  4.210116e+01  7.049793e+02  2.456503e+06 -6.502873e+05  7.103259e+00 -6.503518e+05 
 2615000 -6.626782e+05  1.234898e+04 -1.741883e+02  7.040432e+02  2.457278e+06 -6.505964e+05  7.101020e+00 -6.503292e+05 
 2620000 -6.626667e+05  1.238176e+04  2.607026e+01  7.059124e+02  2.456836e+06 -6.502450e+05  7.102296e+00 -6.502850e+05 
 2625000 -6.626889e+05  1.237051e+04 -2.537944e+02  7.052706e+02  2.457402e+06 -6.507077e+05  7.100662e+00 -6.503184e+05 
 2630000 -6.626458e+05  1.242781e+04 -3.507990e+01  7.085376e+02  2.457194e+06 -6.502718e+05  7.101262e+00 -6.502180e+05 
 2635000 -6.626513e+05  1.240962e+04  4.048455e+02  7.075003e+02  2.456299e+06 -6.496210e+05  7.103851e+00 -6.502417e+05 
 2640000 -6.625621e+05  1.246560e+04  4.019064e+01  7.106922e+02  2.456980e+06 -6.500349e+05  7.101882e+00 -6.500965e+05 
 2645000 -6.626370e+05  1.248160e+04 -1.378907e+02  7.116042e+02  2.457343e+06 -6.503669e+05  7.100831e+00 -6.501554e+05 
 2650000 -6.625079e+05  1.252883e+04 -2.688257e+02  7.142972e+02  2.458098e+06 -6.503915e+05  7.098649e+00 -6.499790e+05 
 2655000 -6.624865e+05  1.250414e+04 -3.191205e+02  7.128895e+02  2.458375e+06 -6.504720e+05  7.097851e+00 -6.499824e+05 
 2660000 -6.625306e+05  1.255658e+04 -1.850146e+02  7.158789e+02  2.457854e+06 -6.502579e+05  7.099355e+00 -6.499740e+05 
 2665000 -6.624499e+05  1.257628e+04  1.555840e+02  7.170022e+02  2.457143e+06 -6.496350e+05  7.101409e+00 -6.498736e+05 
 2670000 -6.624504e+05  1.259701e+04  3.957542e+02  7.181844e+02  2.456685e+06 -6.492466e+05  7.102733e+00 -6.498534e+05 
 2675000 -6.624440e+05  1.257956e+04 -2.151588e+02  7.171891e+02  2.458284e+06 -6.501946e+05  7.098114e+00 -6.498645e+05 
 2680000 -6.624079e+05  1.260960e+04 -1.304787e+02  7.189020e+02  2.457877e+06 -6.499985e+05  7.099288e+00 -6.497983e+05 
 2685000 -6.623798e+05  1.264188e+04  2.229000e+02  7.207423e+02  2.457249e+06 -6.493960e+05  7.101102e+00 -6.497379e+05 
 2690000 -6.623265e+05  1.262481e+04 -3.089804e+01  7.197692e+02  2.457972e+06 -6.497491e+05  7.099016e+00 -6.497017e+05 
 2695000 -6.622783e+05  1.268812e+04 -2.989897e+01  7.233783e+02  2.458062e+06 -6.496361e+05  7.098755e+00 -6.495902e+05 
 2700000 -6.622665e+05  1.276054e+04  9.660541e+01  7.275076e+02  2.458011e+06 -6.493578e+05  7.098901e+00 -6.495060e+05 
 2705000 -6.622314e+05  1.271428e+04 -2.010343e+01  7.248701e+02  2.458383e+06 -6.495480e+05  7.097829e+00 -6.495172e+05 
 2710000 -6.622024e+05  1.276730e+04 -3.109188e+02  7.278925e+02  2.459013e+06 -6.499123e+05  7.096011e+00 -6.494351e+05 
 2715000 -6.622327e+05  1.277359e+04  2.249191e+02  7.282514e+02  2.458051e+06 -6.491141e+05  7.098786e+00 -6.494591e+05 
 2720000 -6.621076e+05  1.282063e+04 -2.057484e+02  7.309331e+02  2.459106e+06 -6.496027e+05  7.095742e+00 -6.492870e+05 
 2725000 -6.621484e+05  1.284455e+04  4.654478e+01  7.322967e+02  2.458994e+06 -6.492324e+05  7.096064e+00 -6.493039e+05 
 2730000 -6.621064e+05  1.286365e+04  1.920697e+02  7.333860e+02  2.458378e+06 -6.489480e+05  7.097842e+00 -6.492427e+05 
 2735000 -6.621195e+05  1.284685e+04  3.136848e+01  7.324281e+02  2.458545e+06 -6.492245e+05  7.097361e+00 -6.492727e+05 
 2740000 -6.620159e+05  1.289815e+04 -2.686994e+02  7.353530e+02  2.459987e+06 -6.495303e+05  7.093201e+00 -6.491177e+05 
 2745000 -6.620795e+05  1.291847e+04 -1.878029e+02  7.365115e+02  2.459162e+06 -6.494493e+05  7.095580e+00 -6.491610e+05 
 2750000 -6.619855e+05  1.293762e+04 -8.105369e+00  7.376029e+02  2.459938e+06 -6.490603e+05  7.093342e+00 -6.490478e+05 
 2755000 -6.619677e+05  1.295914e+04  1.598278e+02  7.388299e+02  2.459475e+06 -6.487632e+05  7.094676e+00 -6.490086e+05 
 2760000 -6.619852e+05  1.298602e+04  9.615992e+01  7.403622e+02  2.459360e+06 -6.488516e+05  7.095008e+00 -6.489992e+05 
 2765000 -6.618971e+05  1.301656e+04  2.892463e+02  7.421034e+02  2.459242e+06 -6.484366e+05  7.095348e+00 -6.488806e+05 
 2770000 -6.619282e+05  1.303025e+04  2.970544e+02  7.428840e+02  2.458848e+06 -6.484420e+05  7.096484e+00 -6.488979e+05 
 2775000 -6.619019e+05  1.303248e+04  7.881632e+01  7.430110e+02  2.459696e+06 -6.487484e+05  7.094040e+00 -6.488694e+05 
 2780000 -6.618639e+05  1.304828e+04 -3.405447e+02  7.439118e+02  2.460851e+06 -6.493387e+05  7.090708e+00 -6.488156e+05 
 2785000 -6.618321e+05  1.308247e+04 -1.624294e+02  7.458614e+02  2.460415e+06 -6.489991e+05  7.091965e+00 -6.487497e+05 
 2790000 -6.617355e+05  1.312009e+04  1.763654e+02  7.480064e+02  2.459902e+06 -6.483446e+05  7.093444e+00 -6.486154e+05 
 2795000 -6.618214e+05  1.313824e+04  1.267631e+02  7.490406e+02  2.459759e+06 -6.484886e+05  7.093856e+00 -6.486832e+05 
 2800000 -6.617708e+05  1.315076e+04 -1.231770e+02  7.497544e+02  2.460240e+06 -6.488091e+05  7.092469e+00 -6.486200e+05 
 2805000 -6.617575e+05  1.322852e+04  3.573241e+02  7.541878e+02  2.459876e+06 -6.479803e+05  7.093520e+00 -6.485289e+05 
 2810000 -6.617004e+05  1.321066e+04  1.739267e+01  7.531697e+02  2.460683e+06 -6.484630e+05  7.091192e+00 -6.484897e+05 
 2815000 -6.616910e+05  1.317201e+04 -3.468350e+02  7.509663e+02  2.461014e+06 -6.490517e+05  7.090240e+00 -6.485189e+05 
 2820000 -6.616480e+05  1.322266e+04  1.664052e+02  7.538538e+02  2.459928e+06 -6.481699e+05  7.093371e+00 -6.484254e+05 
 2825000 -6.615910e+05  1.321388e+04 -3.050026e+01  7.533532e+02  2.460772e+06 -6.484239e+05  7.090937e+00 -6.483771e+05 
 2830000 -6.616542e+05  1.327924e+04 -1.922680e+02  7.570797e+02  2.460976e+06 -6.486703e+05  7.090349e+00 -6.483750e+05 
 2835000 -6.615003e+05  1.329333e+04  1.363637e+02  7.578828e+02  2.460959e+06 -6.479975e+05  7.090399e+00 -6.482069e+05 
 2840000 -6.615574e+05  1.327242e+04 -2.997143e+02  7.566906e+02  2.461323e+06 -6.487454e+05  7.089350e+00 -6.482850e+05 
 2845000 -6.614752e+05  1.335696e+04 -1.153958e+02  7.615104e+02  2.461812e+06 -6.482956e+05  7.087942e+00 -6.481183e+05 
 2850000 -6.615054e+05  1.333562e+04  1.542284e+02  7.602942e+02  2.460761e+06 -6.479329e+05  7.090969e+00 -6.481698e+05 
 2855000 -6.614507e+05  1.342481e+04  1.249151e+02  7.653791e+02  2.461079e+06 -6.478340e+05  7.090053e+00 -6.480259e+05 
 2860000 -6.614131e+05  1.339470e+04 -1.526468e+02  7.636620e+02  2.462353e+06 -6.482530e+05  7.086384e+00 -6.480184e+05 
 2865000 -6.614220e+05  1.342606e+04 -3.481785e+02  7.654502e+02  2.462615e+06 -6.485311e+05  7.085629e+00 -6.479959e+05 
 2870000 -6.612828e+05  1.346650e+04 -2.174689e+02  7.677559e+02  2.462598e+06 -6.481506e+05  7.085679e+00 -6.478163e+05 
 2875000 -6.613392e+05  1.349814e+04 -2.358307e+02  7.695593e+02  2.462538e+06 -6.482036e+05  7.085853e+00 -6.478411e+05 
 2880000 -6.612773e+05  1.343055e+04 -3.404603e+02  7.657059e+02  2.462441e+06 -6.483700e+05  7.086129e+00 -6.478467e+05 
 2885000 -6.612765e+05  1.357508e+04 -2.248887e+02  7.739461e+02  2.462607e+06 -6.480471e+05  7.085653e+00 -6.477014e+05 
 2890000 -6.611899e+05  1.354242e+04 -1.957922e+02  7.720839e+02  2.462646e+06 -6.479484e+05  7.085540e+00 -6.476475e+05 
 2895000 -6.611706e+05  1.356547e+04 -6.075030e+01  7.733982e+02  2.462645e+06 -6.476985e+05  7.085543e+00 -6.476052e+05 
 2900000 -6.611613e+05  1.359312e+04  2.216134e+02  7.749746e+02  2.461692e+06 -6.472277e+05  7.088286e+00 -6.475682e+05 
 2905000 -6.611592e+05  1.361144e+04  6.347645e+01  7.760191e+02  2.462374e+06 -6.474502e+05  7.086325e+00 -6.475478e+05 
 2910000 -6.611937e+05  1.362934e+04 -3.650029e+02  7.770394e+02  2.463125e+06 -6.481255e+05  7.084162e+00 -6.475644e+05 
 2915000 -6.611107e+05  1.362596e+04  2.387284e+02  7.768471e+02  2.461853e+06 -6.471179e+05  7.087824e+00 -6.474847e+05 
 2920000 -6.611542e+05  1.373741e+04  1.764857e+02  7.832006e+02  2.462334e+06 -6.471456e+05  7.086437e+00 -6.474168e+05 
 2925000 -6.610348e+05  1.369041e+04 -2.508933e+02  7.805214e+02  2.463529e+06 -6.477302e+05  7.083000e+00 -6.473444e+05 
 2930000 -6.610473e+05  1.375900e+04 -1.072825e+02  7.844316e+02  2.463127e+06 -6.474532e+05  7.084158e+00 -6.472883e+05 
 2935000 -6.609671e+05  1.376875e+04  1.427121e+02  7.849878e+02  2.462935e+06 -6.469790e+05  7.084709e+00 -6.471984e+05 
 2940000 -6.608724e+05  1.380166e+04 -1.086327e+02  7.868638e+02  2.463877e+06 -6.472378e+05  7.082001e+00 -6.470707e+05 
 2945000 -6.609719e+05  1.378584e+04  7.697196e+01  7.859621e+02  2.463101e+06 -6.470677e+05  7.084231e+00 -6.471860e+05 
 2950000 -6.608756e+05  1.380117e+04  1.049183e+02  7.868362e+02  2.462952e+06 -6.469131e+05  7.084659e+00 -6.470744e+05 
 2955000 -6.608879e+05  1.385966e+04 -3.024788e+02  7.901705e+02  2.463627e+06 -6.474933e+05  7.082720e+00 -6.470282e+05 
 2960000 -6.608838e+05  1.378763e+04  4.055357e+01  7.860640e+02  2.463096e+06 -6.470338e+05  7.084247e+00 -6.470962e+05 
[...]
 3055000 -6.602446e+05  1.424244e+04  3.119297e+02  8.119939e+02  2.464658e+06 -6.455223e+05  7.079758e+00 -6.460022e+05 
 3060000 -6.601540e+05  1.427691e+04 -2.057461e+02  8.139587e+02  2.466299e+06 -6.461938e+05  7.075046e+00 -6.458771e+05 
 3065000 -6.601837e+05  1.429662e+04  5.637017e+01  8.150827e+02  2.465384e+06 -6.458003e+05  7.077672e+00 -6.458871e+05 
 3070000 -6.602083e+05  1.428993e+04  1.862331e+02  8.147016e+02  2.465030e+06 -6.456318e+05  7.078689e+00 -6.459183e+05 
 3075000 -6.601135e+05  1.430727e+04 -3.723764e+02  8.156898e+02  2.466686e+06 -6.463796e+05  7.073935e+00 -6.458063e+05 
 3080000 -6.600701e+05  1.435102e+04 -9.807343e+01  8.181839e+02  2.465791e+06 -6.458700e+05  7.076502e+00 -6.457191e+05 
 3085000 -6.600655e+05  1.440291e+04  8.290453e+01  8.211424e+02  2.465985e+06 -6.455350e+05  7.075948e+00 -6.456626e+05 
 3090000 -6.600182e+05  1.446815e+04  3.278602e+02  8.248621e+02  2.465548e+06 -6.450455e+05  7.077200e+00 -6.455501e+05 
 3095000 -6.599789e+05  1.445173e+04  2.593706e+02  8.239257e+02  2.465778e+06 -6.451280e+05  7.076541e+00 -6.455272e+05 
 3100000 -6.599007e+05  1.450978e+04  1.508424e+02  8.272357e+02  2.466281e+06 -6.451587e+05  7.075098e+00 -6.453909e+05 
 3105000 -6.599160e+05  1.447873e+04  6.180906e+01  8.254650e+02  2.466452e+06 -6.453421e+05  7.074606e+00 -6.454372e+05 
 3110000 -6.598784e+05  1.451930e+04  4.011744e+01  8.277784e+02  2.466631e+06 -6.452973e+05  7.074094e+00 -6.453591e+05 
 3115000 -6.598482e+05  1.459197e+04  5.846429e+02  8.319215e+02  2.465506e+06 -6.443565e+05  7.077322e+00 -6.452562e+05 
 3120000 -6.597918e+05  1.457300e+04  1.637068e+02  8.308400e+02  2.466489e+06 -6.449668e+05  7.074500e+00 -6.452188e+05 
 3125000 -6.597388e+05  1.460816e+04 -1.388154e+02  8.328441e+02  2.467651e+06 -6.453445e+05  7.071170e+00 -6.451307e+05 
 3130000 -6.597334e+05  1.463871e+04 -6.158139e+01  8.345860e+02  2.467565e+06 -6.451896e+05  7.071415e+00 -6.450947e+05 
 3135000 -6.597113e+05  1.455893e+04  3.656842e+02  8.300375e+02  2.466426e+06 -6.445894e+05  7.074681e+00 -6.451523e+05 
 3140000 -6.596794e+05  1.464303e+04 -2.340832e+02  8.348322e+02  2.467938e+06 -6.453969e+05  7.070348e+00 -6.450364e+05 
 3145000 -6.596212e+05  1.465067e+04  2.361345e+02  8.352680e+02  2.466916e+06 -6.446069e+05  7.073275e+00 -6.449705e+05 
 3150000 -6.595979e+05  1.472110e+04 -6.451609e+02  8.392830e+02  2.469056e+06 -6.458710e+05  7.067146e+00 -6.448768e+05 
 3155000 -6.595066e+05  1.470469e+04  2.203107e+02  8.383475e+02  2.466953e+06 -6.444627e+05  7.073170e+00 -6.448019e+05 
 3160000 -6.595830e+05  1.471377e+04  6.879508e+01  8.388654e+02  2.467260e+06 -6.447633e+05  7.072291e+00 -6.448693e+05 
 3165000 -6.595469e+05  1.475080e+04 -4.283218e+02  8.409764e+02  2.468612e+06 -6.454560e+05  7.068417e+00 -6.447961e+05 
 3170000 -6.593822e+05  1.480924e+04  7.505212e+01  8.443085e+02  2.468219e+06 -6.444573e+05  7.069543e+00 -6.445729e+05 
 3175000 -6.594526e+05  1.486141e+04  3.844787e+02  8.472825e+02  2.467194e+06 -6.439992e+05  7.072479e+00 -6.445912e+05 
 3180000 -6.594140e+05  1.483748e+04  4.560950e+02  8.459182e+02  2.466892e+06 -6.438742e+05  7.073346e+00 -6.445765e+05 
 3185000 -6.593222e+05  1.485628e+04  6.792313e+01  8.469901e+02  2.468194e+06 -6.443613e+05  7.069614e+00 -6.444659e+05 
 3190000 -6.592609e+05  1.484295e+04  1.386565e+02  8.462303e+02  2.468124e+06 -6.442044e+05  7.069814e+00 -6.444180e+05 
 3195000 -6.592756e+05  1.483751e+04  1.062136e+01  8.459204e+02  2.468354e+06 -6.444217e+05  7.069156e+00 -6.444381e+05 
 3200000 -6.592438e+05  1.494301e+04  2.575922e+01  8.519348e+02  2.468430e+06 -6.442611e+05  7.068938e+00 -6.443007e+05 
 3205000 -6.591770e+05  1.493719e+04  4.650056e+02  8.516034e+02  2.467615e+06 -6.435236e+05  7.071273e+00 -6.442398e+05 
 3210000 -6.592287e+05  1.493396e+04  1.912688e+02  8.514187e+02  2.468080e+06 -6.440001e+05  7.069940e+00 -6.442948e+05 
 3215000 -6.591465e+05  1.497308e+04 -2.414078e+02  8.536490e+02  2.469325e+06 -6.445455e+05  7.066377e+00 -6.441735e+05 
 3220000 -6.590936e+05  1.503486e+04 -2.126508e+02  8.571717e+02  2.469521e+06 -6.443865e+05  7.065816e+00 -6.440587e+05 
 3225000 -6.589894e+05  1.503261e+04  2.744593e+02  8.570431e+02  2.468984e+06 -6.435339e+05  7.067352e+00 -6.439568e+05 
 3230000 -6.590048e+05  1.507090e+04 -1.638173e+02  8.592262e+02  2.469612e+06 -6.441864e+05  7.065555e+00 -6.439339e+05 
 3235000 -6.589784e+05  1.501307e+04 -1.209377e+02  8.559292e+02  2.469700e+06 -6.441518e+05  7.065302e+00 -6.439653e+05 
 3240000 -6.589083e+05  1.508533e+04  8.288615e+01  8.600487e+02  2.469152e+06 -6.436953e+05  7.066871e+00 -6.438230e+05 
 3245000 -6.589114e+05  1.512843e+04 -1.333167e+02  8.625059e+02  2.469809e+06 -6.439885e+05  7.064990e+00 -6.437830e+05 
 3250000 -6.588110e+05  1.517093e+04 -3.066658e+02  8.649292e+02  2.470467e+06 -6.441130e+05  7.063109e+00 -6.436401e+05 
 3255000 -6.587277e+05  1.515291e+04  2.678889e+02  8.639017e+02  2.469661e+06 -6.431619e+05  7.065415e+00 -6.435748e+05 
 3260000 -6.587154e+05  1.514854e+04  3.234906e+02  8.636529e+02  2.468871e+06 -6.430684e+05  7.067677e+00 -6.435668e+05 
 3265000 -6.586856e+05  1.524246e+04  1.568933e+02  8.690070e+02  2.469718e+06 -6.432013e+05  7.065252e+00 -6.434432e+05 
 3270000 -6.585820e+05  1.520163e+04  2.668981e+02  8.666793e+02  2.469922e+06 -6.429690e+05  7.064669e+00 -6.433804e+05 
 3275000 -6.586123e+05  1.521217e+04 -2.744895e+00  8.672802e+02  2.470506e+06 -6.434043e+05  7.062998e+00 -6.434001e+05 
 3280000 -6.585355e+05  1.526850e+04 -2.228065e+01  8.704921e+02  2.470651e+06 -6.433013e+05  7.062583e+00 -6.432670e+05 
 3285000 -6.584809e+05  1.527594e+04 -2.509364e+02  8.709162e+02  2.471190e+06 -6.435920e+05  7.061044e+00 -6.432050e+05 
 3290000 -6.585065e+05  1.525218e+04 -3.711289e+02  8.695616e+02  2.471328e+06 -6.438268e+05  7.060649e+00 -6.432543e+05 
 3295000 -6.584391e+05  1.534077e+04 -1.798974e+02  8.746122e+02  2.471597e+06 -6.433758e+05  7.059881e+00 -6.430983e+05 
 3300000 -6.583804e+05  1.532263e+04 -7.651643e+01  8.735779e+02  2.471550e+06 -6.431758e+05  7.060015e+00 -6.430577e+05 
 3305000 -6.582823e+05  1.537102e+04  6.938889e+01  8.763367e+02  2.470927e+06 -6.428043e+05  7.061795e+00 -6.429113e+05 
 3310000 -6.582861e+05  1.541926e+04  1.598209e+02  8.790868e+02  2.471062e+06 -6.426203e+05  7.061410e+00 -6.428668e+05 
 3315000 -6.582172e+05  1.543880e+04 -1.558273e+02  8.802012e+02  2.472113e+06 -6.430189e+05  7.058408e+00 -6.427784e+05 
 3320000 -6.582119e+05  1.545654e+04  8.273259e+01  8.812125e+02  2.471075e+06 -6.426277e+05  7.061371e+00 -6.427553e+05 
 3325000 -6.581637e+05  1.548154e+04  1.713460e+02  8.826379e+02  2.471795e+06 -6.424178e+05  7.059316e+00 -6.426821e+05 
 3330000 -6.581376e+05  1.542179e+04 -2.345886e+02  8.792311e+02  2.472523e+06 -6.430778e+05  7.057237e+00 -6.427158e+05 
 3335000 -6.580185e+05  1.552436e+04  1.356423e+02  8.850789e+02  2.472608e+06 -6.422848e+05  7.056993e+00 -6.424941e+05 
 3340000 -6.580294e+05  1.545758e+04 -1.087773e+02  8.812714e+02  2.472581e+06 -6.427397e+05  7.057070e+00 -6.425718e+05 
 3345000 -6.578692e+05  1.557028e+04  3.005622e+02  8.876970e+02  2.472590e+06 -6.418351e+05  7.057046e+00 -6.422989e+05 
 3350000 -6.578823e+05  1.560687e+04  1.880529e+01  8.897832e+02  2.472651e+06 -6.422464e+05  7.056870e+00 -6.422755e+05 
 3355000 -6.578262e+05  1.558967e+04 -2.733426e+02  8.888024e+02  2.473286e+06 -6.426585e+05  7.055060e+00 -6.422365e+05 
 3360000 -6.578235e+05  1.559375e+04 -2.668392e+01  8.890350e+02  2.472883e+06 -6.422709e+05  7.056208e+00 -6.422297e+05 
 3365000 -6.576995e+05  1.560178e+04  4.604274e+02  8.894926e+02  2.472236e+06 -6.413873e+05  7.058056e+00 -6.420977e+05 
 3370000 -6.577039e+05  1.564571e+04  4.172427e+02  8.919975e+02  2.472364e+06 -6.414143e+05  7.057691e+00 -6.420582e+05 
 3375000 -6.575983e+05  1.564162e+04  5.013284e+02  8.917644e+02  2.472134e+06 -6.411832e+05  7.058347e+00 -6.419567e+05 
 3380000 -6.576056e+05  1.570897e+04  1.879762e+02  8.956040e+02  2.472705e+06 -6.416065e+05  7.056716e+00 -6.418966e+05 
 3385000 -6.574913e+05  1.573041e+04  2.331105e+02  8.968264e+02  2.472846e+06 -6.414011e+05  7.056316e+00 -6.417609e+05 
 3390000 -6.574468e+05  1.573107e+04 -4.372382e+01  8.968643e+02  2.473969e+06 -6.417832e+05  7.053110e+00 -6.417157e+05 
 3395000 -6.573872e+05  1.574480e+04 -4.807885e+02  8.976470e+02  2.475022e+06 -6.423851e+05  7.050110e+00 -6.416424e+05 
 3400000 -6.572752e+05  1.577210e+04 -9.819945e+01  8.992034e+02  2.474625e+06 -6.416547e+05  7.051241e+00 -6.415031e+05 
 3405000 -6.572932e+05  1.577173e+04  7.199811e+02  8.991821e+02  2.472545e+06 -6.404104e+05  7.057174e+00 -6.415215e+05 
 3410000 -6.571444e+05  1.587660e+04  3.529298e+01  9.051609e+02  2.474356e+06 -6.412133e+05  7.052009e+00 -6.412678e+05 
 3415000 -6.570887e+05  1.583941e+04 -7.296830e+01  9.030406e+02  2.475051e+06 -6.413620e+05  7.050028e+00 -6.412493e+05 
 3420000 -6.570364e+05  1.586975e+04 -1.662741e+01  9.047703e+02  2.474814e+06 -6.411924e+05  7.050703e+00 -6.411667e+05 
 3425000 -6.569508e+05  1.595504e+04  2.399614e+02  9.096329e+02  2.474212e+06 -6.406252e+05  7.052417e+00 -6.409958e+05 
 3430000 -6.568950e+05  1.589516e+04 -5.400927e+02  9.062193e+02  2.476049e+06 -6.418345e+05  7.047188e+00 -6.409998e+05 
 3435000 -6.568985e+05  1.596642e+04  1.143831e+02  9.102821e+02  2.475014e+06 -6.407553e+05  7.050132e+00 -6.409320e+05 
 3440000 -6.567958e+05  1.594378e+04  2.617111e+02  9.089911e+02  2.474858e+06 -6.404478e+05  7.050578e+00 -6.408520e+05 
 3445000 -6.567221e+05  1.605427e+04 -2.417525e+02  9.152903e+02  2.476027e+06 -6.410415e+05  7.047249e+00 -6.406679e+05 
 3450000 -6.566323e+05  1.600510e+04 -2.789237e+02  9.124870e+02  2.476224e+06 -6.410582e+05  7.046689e+00 -6.406272e+05 
 3455000 -6.565570e+05  1.599386e+04  1.539832e+02  9.118461e+02  2.475651e+06 -6.403252e+05  7.048318e+00 -6.405631e+05 
 3460000 -6.564597e+05  1.609043e+04  3.376808e+02  9.173519e+02  2.475358e+06 -6.398475e+05  7.049155e+00 -6.403693e+05 
 3465000 -6.564142e+05  1.607556e+04 -8.807842e+01  9.165040e+02  2.476810e+06 -6.404748e+05  7.045022e+00 -6.403386e+05 
 3470000 -6.562223e+05  1.605518e+04 -1.817671e+02  9.153423e+02  2.476832e+06 -6.404481e+05  7.044959e+00 -6.401671e+05 
 3475000 -6.562670e+05  1.605284e+04 -3.034313e+02  9.152087e+02  2.477186e+06 -6.406833e+05  7.043953e+00 -6.402142e+05 
 3480000 -6.562372e+05  1.619267e+04 -2.476232e+02  9.231806e+02  2.477350e+06 -6.404275e+05  7.043487e+00 -6.400446e+05 
 3485000 -6.561652e+05  1.610748e+04 -2.129618e+02  9.183239e+02  2.477128e+06 -6.403870e+05  7.044118e+00 -6.400577e+05 
 3490000 -6.560974e+05  1.615453e+04 -2.135682e+02  9.210062e+02  2.477409e+06 -6.402731e+05  7.043319e+00 -6.399429e+05 
 3495000 -6.559578e+05  1.613594e+04  3.335590e+00  9.199465e+02  2.477698e+06 -6.398167e+05  7.042495e+00 -6.398219e+05 
 3500000 -6.559320e+05  1.620302e+04  5.139900e+02  9.237708e+02  2.476547e+06 -6.389345e+05  7.045769e+00 -6.397290e+05 
 3505000 -6.558595e+05  1.616703e+04 -3.323789e+01  9.217192e+02  2.477766e+06 -6.397439e+05  7.042304e+00 -6.396925e+05 
 3510000 -6.557919e+05  1.626002e+04  2.213444e+02  9.270208e+02  2.477083e+06 -6.391897e+05  7.044246e+00 -6.395319e+05 
 3515000 -6.558019e+05  1.624919e+04 -6.930175e+01  9.264034e+02  2.477741e+06 -6.396599e+05  7.042374e+00 -6.395527e+05 
 3520000 -6.556925e+05  1.631246e+04  1.744472e+02  9.300103e+02  2.477894e+06 -6.391102e+05  7.041939e+00 -6.393800e+05 
 3525000 -6.556485e+05  1.635853e+04 -5.522359e+01  9.326370e+02  2.478557e+06 -6.393754e+05  7.040056e+00 -6.392900e+05 
 3530000 -6.555688e+05  1.635914e+04  3.632169e+02  9.326716e+02  2.477176e+06 -6.386481e+05  7.043981e+00 -6.392097e+05 
 3535000 -6.555215e+05  1.641041e+04  8.902356e+01  9.355947e+02  2.478338e+06 -6.389734e+05  7.040679e+00 -6.391111e+05 
 3540000 -6.554627e+05  1.640447e+04 -1.228214e+02  9.352560e+02  2.479193e+06 -6.392483e+05  7.038250e+00 -6.390582e+05 
 3545000 -6.553795e+05  1.639146e+04 -6.100593e+02  9.345146e+02  2.480597e+06 -6.399325e+05  7.034265e+00 -6.389880e+05 
 3550000 -6.553355e+05  1.637821e+04 -2.727096e+02  9.337587e+02  2.479449e+06 -6.393793e+05  7.037522e+00 -6.389573e+05 
 3555000 -6.553405e+05  1.647275e+04  8.748480e+01  9.391490e+02  2.478819e+06 -6.387324e+05  7.039312e+00 -6.388677e+05 
 3560000 -6.553196e+05  1.653602e+04  6.331711e+01  9.427558e+02  2.478957e+06 -6.386857e+05  7.038921e+00 -6.387836e+05 
 3565000 -6.551904e+05  1.647500e+04  2.141854e+02  9.392772e+02  2.478709e+06 -6.383841e+05  7.039623e+00 -6.387154e+05 
 3570000 -6.551896e+05  1.650674e+04  1.627510e+02  9.410867e+02  2.479208e+06 -6.384310e+05  7.038208e+00 -6.386828e+05 
 3575000 -6.551067e+05  1.655901e+04 -5.909147e+01  9.440670e+02  2.479640e+06 -6.386391e+05  7.036980e+00 -6.385476e+05 
 3580000 -6.551102e+05  1.659051e+04 -1.041606e+02  9.458629e+02  2.480155e+06 -6.386809e+05  7.035521e+00 -6.385197e+05 
 3585000 -6.550821e+05  1.658701e+04 -2.756703e+02  9.456631e+02  2.480589e+06 -6.389219e+05  7.034288e+00 -6.384951e+05 
 3590000 -6.549564e+05  1.660365e+04 -1.343849e+02  9.466117e+02  2.480650e+06 -6.385608e+05  7.034115e+00 -6.383528e+05 
 3595000 -6.549524e+05  1.665438e+04  3.829140e+02  9.495040e+02  2.479411e+06 -6.377054e+05  7.037631e+00 -6.382980e+05 
 3600000 -6.549065e+05  1.663140e+04 -2.299975e+02  9.481936e+02  2.480943e+06 -6.386312e+05  7.033286e+00 -6.382751e+05 
 3605000 -6.548541e+05  1.670436e+04  1.941366e+02  9.523533e+02  2.480507e+06 -6.378492e+05  7.034520e+00 -6.381497e+05 
 3610000 -6.547898e+05  1.666132e+04  7.067285e+01  9.498999e+02  2.480678e+06 -6.380191e+05  7.034035e+00 -6.381285e+05 
 3615000 -6.547602e+05  1.668953e+04 -1.780320e+02  9.515079e+02  2.481192e+06 -6.383463e+05  7.032580e+00 -6.380706e+05 
 3620000 -6.547746e+05  1.679018e+04  2.762515e+02  9.572464e+02  2.480257e+06 -6.375567e+05  7.035230e+00 -6.379844e+05 
 3625000 -6.546923e+05  1.676078e+04  1.640576e+02  9.555701e+02  2.480535e+06 -6.376775e+05  7.034440e+00 -6.379315e+05 
 3630000 -6.546085e+05  1.684115e+04  1.347264e+02  9.601523e+02  2.481180e+06 -6.375587e+05  7.032614e+00 -6.377673e+05 
 3635000 -6.546125e+05  1.680974e+04 -2.283401e+02  9.583614e+02  2.481668e+06 -6.381565e+05  7.031230e+00 -6.378028e+05 
 3640000 -6.544879e+05  1.678625e+04 -1.979760e+02  9.570224e+02  2.482256e+06 -6.380084e+05  7.029566e+00 -6.377016e+05 
 3645000 -6.544514e+05  1.685577e+04 -2.287755e+02  9.609856e+02  2.482174e+06 -6.379500e+05  7.029796e+00 -6.375956e+05 
 3650000 -6.544039e+05  1.691915e+04 -7.901682e+01  9.645992e+02  2.482187e+06 -6.376071e+05  7.029761e+00 -6.374847e+05 
 3655000 -6.543517e+05  1.690564e+04 -7.921673e+01  9.638290e+02  2.481920e+06 -6.375687e+05  7.030516e+00 -6.374460e+05 
 3660000 -6.543562e+05  1.695650e+04  7.924008e+01  9.667286e+02  2.482016e+06 -6.372770e+05  7.030245e+00 -6.373997e+05 
 3665000 -6.543473e+05  1.695582e+04  3.398814e+02  9.666899e+02  2.481075e+06 -6.368652e+05  7.032912e+00 -6.373915e+05 
 3670000 -6.543538e+05  1.706803e+04 -4.731811e+01  9.730870e+02  2.482623e+06 -6.373591e+05  7.028526e+00 -6.372858e+05 
 3675000 -6.542887e+05  1.699064e+04 -1.451353e+02  9.686748e+02  2.482740e+06 -6.375230e+05  7.028194e+00 -6.372981e+05 
 3680000 -6.542215e+05  1.698310e+04  5.635884e+01  9.682451e+02  2.482359e+06 -6.371510e+05  7.029274e+00 -6.372384e+05 
 3685000 -6.541993e+05  1.707022e+04 -9.562794e+01  9.732121e+02  2.482816e+06 -6.372773e+05  7.027978e+00 -6.371291e+05 
 3690000 -6.541345e+05  1.702280e+04  1.061642e+02  9.705086e+02  2.482204e+06 -6.369472e+05  7.029712e+00 -6.371117e+05 
 3695000 -6.540774e+05  1.707063e+04 -2.169641e+01  9.732354e+02  2.482944e+06 -6.370404e+05  7.027616e+00 -6.370067e+05 
 3700000 -6.540617e+05  1.712882e+04 -5.931224e+01  9.765531e+02  2.483076e+06 -6.370248e+05  7.027243e+00 -6.369329e+05 
 3705000 -6.539759e+05  1.712831e+04 -1.988267e+02  9.765241e+02  2.483504e+06 -6.371557e+05  7.026031e+00 -6.368475e+05 
 3710000 -6.538434e+05  1.719818e+04  1.039195e+02  9.805074e+02  2.483138e+06 -6.364842e+05  7.027067e+00 -6.366452e+05 
 3715000 -6.538431e+05  1.721069e+04  3.591519e+02  9.812205e+02  2.482443e+06 -6.360759e+05  7.029035e+00 -6.366324e+05 
 3720000 -6.538736e+05  1.720021e+04 -2.080236e+02  9.806231e+02  2.484060e+06 -6.369959e+05  7.024459e+00 -6.366734e+05 
 3725000 -6.538281e+05  1.721547e+04 -1.018030e+02  9.814931e+02  2.483870e+06 -6.367704e+05  7.024997e+00 -6.366126e+05 
 3730000 -6.537683e+05  1.729366e+04 -2.322559e+02  9.859507e+02  2.484566e+06 -6.368348e+05  7.023030e+00 -6.364746e+05 
 3735000 -6.537377e+05  1.719477e+04 -1.861371e+02  9.803131e+02  2.484352e+06 -6.368316e+05  7.023634e+00 -6.365430e+05 
 3740000 -6.537298e+05  1.730095e+04 -1.326964e+02  9.863665e+02  2.484293e+06 -6.366346e+05  7.023800e+00 -6.364288e+05 
 3745000 -6.535362e+05  1.733319e+04 -1.829790e+02  9.882043e+02  2.485073e+06 -6.364869e+05  7.021597e+00 -6.362030e+05 
 3750000 -6.536065e+05  1.725758e+04 -2.000580e+02  9.838935e+02  2.484491e+06 -6.366591e+05  7.023241e+00 -6.363489e+05 
 3755000 -6.536478e+05  1.733408e+04  3.553326e+02  9.882549e+02  2.483109e+06 -6.357631e+05  7.027150e+00 -6.363138e+05 
 3760000 -6.535369e+05  1.730953e+04  2.643155e+02  9.868553e+02  2.484028e+06 -6.358176e+05  7.024549e+00 -6.362274e+05 
 3765000 -6.535721e+05  1.731592e+04 -5.699032e+01  9.872198e+02  2.484312e+06 -6.363445e+05  7.023747e+00 -6.362562e+05 
 3770000 -6.533977e+05  1.746431e+04  2.852688e+02  9.956797e+02  2.483625e+06 -6.354912e+05  7.025689e+00 -6.359334e+05 
 3775000 -6.533850e+05  1.745334e+04 -8.108492e+01  9.950543e+02  2.485563e+06 -6.360574e+05  7.020213e+00 -6.359316e+05 
 3780000 -6.533723e+05  1.746596e+04  9.176441e+01  9.957740e+02  2.485033e+06 -6.357640e+05  7.021708e+00 -6.359064e+05 
 3785000 -6.533007e+05  1.748099e+04 -2.120255e+02  9.966308e+02  2.485688e+06 -6.361487e+05  7.019857e+00 -6.358198e+05 
 3790000 -6.532310e+05  1.745561e+04 -7.941841e+01  9.951838e+02  2.485685e+06 -6.358986e+05  7.019868e+00 -6.357754e+05 
 3795000 -6.532868e+05  1.749064e+04  5.612267e+01  9.971808e+02  2.484752e+06 -6.357091e+05  7.022504e+00 -6.357962e+05 
 3800000 -6.532216e+05  1.756664e+04  1.174541e+02  1.001514e+03  2.485481e+06 -6.354727e+05  7.020443e+00 -6.356549e+05 
Loop time of 44580 on 76 procs for 3800000 steps with 135696 atoms

Performance: 7.365 ns/day, 3.259 hours/ns, 85.240 timesteps/s
96.1% CPU use with 76 MPI tasks x no OpenMP threads

MPI task timing breakdown:
Section |  min time  |  avg time  |  max time  |%varavg| %total
---------------------------------------------------------------
Pair    | 38630      | 40673      | 42680      | 455.0 | 91.24
Neigh   | 144.02     | 147.03     | 149.67     |  10.5 |  0.33
Comm    | 1263.9     | 3213.2     | 5306.2     |1602.4 |  7.21
Output  | 3.0498     | 3.0507     | 3.0838     |   0.2 |  0.01
Modify  | 342.79     | 431.24     | 968.18     | 601.9 |  0.97
Other   |            | 112.2      |            |       |  0.25

Nlocal:        1785.47 ave        1822 max        1761 min
Histogram: 8 8 9 11 14 12 10 2 1 1
Nghost:        5635.66 ave        5789 max        5480 min
Histogram: 3 5 17 12 3 1 12 9 11 3
Neighs:       178729.0 ave      182921 max      174260 min
Histogram: 7 6 7 11 5 6 6 14 9 5

Total # of neighbors = 13583382
Ave neighs/atom = 100.10157
Neighbor list builds = 36725
Dangerous builds = 0
write_restart 	data/restart.heat_msr
System init for write_restart ...

#--------------------------------------------------------------------------------OUTPUT
variable        clusfile string "data/data.msr_dsc"               #output to save progress and to allow import to future simulations
variable        reclusfile string "data/restart.msr_dsc"
write_data      ${clusfile}
write_data      data/data.msr_dsc
System init for write_data ...
write_restart   ${reclusfile}
write_restart   data/restart.msr_dsc
System init for write_restart ...
Total wall time: 12:23:00
