LAMMPS data file via write_data, version 29 Oct 2020, timestep = 4760000

30 atoms
4 atom types

-32.90390376854133 32.90390376854133 xlo xhi
-32.90390376854133 32.90390376854133 ylo yhi
-32.90390376854133 32.90390376854133 zlo zhi

Masses

1 63.546
2 91.224
3 63.546
4 91.224

Atoms # atomic

1 4 2.0075989353621857 -1.2860868945194606 -2.9051489375366377 -7 4 1
3 3 0.5327394639328333 0.8548817562165968 -2.725452447682177 -2 2 -3
29 3 0.344190902179042 -3.24865441636979 -1.9679241998324555 3 8 -2
13 4 1.3020833417344346 -4.011944869285026 0.642328628313869 -3 3 -5
10 4 -1.6392513937420967 -3.4124668868223784 -0.18271407260343203 -7 4 -3
26 3 3.6862688655144895 -2.7938872374618016 0.8408712477802616 1 0 4
30 3 2.7908441418335377 -3.2554553102809733 -1.3716493784077228 -11 0 -4
28 3 -3.8979851313600413 -1.9950018597380865 -0.7408557980732875 -3 6 -3
21 3 -3.629280275749643 0.17134257537121592 -1.7002755699102419 -1 1 -5
18 4 -4.483631170945416 0.01504653288389851 1.0554967291854978 -2 3 0
5 3 -3.2968450609832054 -2.401497509831624 1.7182090775481866 -2 7 7
14 3 -3.2381830020003615 2.187039362622858 -0.1353195522621631 -3 1 1
7 4 -1.318397755312664 -1.207803283426709 -2.452337577204605 0 4 -3
9 3 1.9593399421857103 -2.0335611273444094 2.4427302555822714 -9 3 5
22 4 -0.7074983839924943 -2.2629044847601474 2.4848564400449216 -4 6 2
4 4 -2.0529245686804076 2.093408188057614 2.206230438119845 -1 5 4
17 4 0.17808389744866862 1.6317296618479573 -0.02377655459517373 -1 0 0
20 4 1.1034186767733918 -1.254786799461435 -0.18917124328319554 -10 7 -3
27 4 -1.8699722956568392 -0.3885345202415586 0.35035309024109135 -1 5 1
23 4 -1.7868843509759762 1.9168004320037981 -2.221590411564236 -6 5 4
24 3 2.4183032507567366 2.2237418706088805 1.4249525319963914 -5 2 4
11 4 3.432227316243973 -0.211653470230542 1.370043341803363 -6 2 -1
15 3 3.8244208236873543 -1.149134487276139 -1.029977777015737 -4 5 0
2 4 2.7317724482441013 1.4896600526257686 -1.266356371755582 -1 4 3
12 3 0.5452271945244545 3.3205973240158526 -2.1722513627581788 -9 4 -4
25 4 -1.1271083475573915 4.217230273020576 -0.1390226382769571 -5 1 -6
8 3 1.6168264694091425 3.9550559067366255 -0.09132385713663704 -4 1 -3
6 3 0.311005305542346 3.39893253938715 2.027856856085939 0 9 7
16 3 -2.527983088833144 -0.3713163095122758 2.9890728116921226 -4 2 0
19 4 0.6575442989349629 0.5322935898404787 2.679270786655832 0 0 -2

Velocities

1 -0.5470374730869718 1.1024010992947595 0.026948546441433095
3 0.6397416736091158 -1.3883254634599227 0.6791170981783747
29 1.404622194078572 -1.529007131696235 -0.005447406162160419
13 0.3691454943704237 -0.36349001265616754 -0.11842035312512947
10 -0.9734295542078591 -0.21002729397432343 -1.2735792667427297
26 0.8725779814876237 -0.2529502111938458 -0.8678056790830022
30 0.3396527556760899 0.18642317690249954 0.3569356211734706
28 -0.1549175619109636 -0.7028983772154571 0.754357708422118
21 0.9328657276325518 1.4694150397096208 -0.194437912927951
18 0.5286331431418198 -0.10838435699780687 0.11574054581840616
5 -0.13529699962949412 0.3555679187959735 1.2615198944621238
14 -1.3308079205248298 -0.5220193475950198 -1.2765343473682988
7 0.15899425906143086 0.47319968326105705 -0.5696510882364417
9 0.1508176812864026 -0.504590314724115 0.12311846583706589
22 -0.8655236951808597 0.012427205382840832 0.07904435746728576
4 -0.17917572954821043 0.5520108753732815 -0.4191692158057327
17 1.1092111598530217 0.39269866399492886 0.6196958594708843
20 -0.927679669179079 0.984329200054251 -0.6685068029053554
27 -0.6985705042587496 0.9784733790321192 0.629418349499776
23 -0.3128951670981222 -0.558514713397812 -0.14232553947127435
24 0.6342441714804797 -0.6606437339659482 -1.0041550978040295
11 0.19927883650656558 0.2643970999918209 0.6206981558987883
15 0.2478056364781904 -1.5838734954523264 0.5506017586991836
2 -0.12054370569604185 -0.036686738303659164 0.011390519894359238
12 -0.04366117634963186 -0.12628662507993116 0.20643253111116866
25 -0.3379353396092634 -0.5411473374545153 0.29992731105992837
8 -1.0140628424140576 -0.440591902239064 0.2905042435370646
6 -0.09647155466222133 1.4317957152556007 0.7920198720032854
16 0.5674826425436027 -0.9355099653724493 0.44200511321927266
19 0.46518009169690505 0.6693015833299854 -0.6731911588649332
