LAMMPS data file via write_data, version 29 Oct 2020, timestep = 4760000

236 atoms
4 atom types

-32.90390376854133 32.90390376854133 xlo xhi
-32.90390376854133 32.90390376854133 ylo yhi
-32.90390376854133 32.90390376854133 zlo zhi

Masses

1 63.546
2 91.224
3 63.546
4 91.224

Atoms # atomic

191 3 -1.2729257349849084 -2.5765812937110684 -8.631520380855191 3 4 0
212 4 -3.9959409009191447 2.1897891422517874 -8.334308906596073 -2 6 4
211 4 -3.2110432101216877 -0.87033689343072 -8.149895021294792 -2 -2 1
96 4 -0.23371760030504748 0.13695706794927445 -8.752837937883413 0 4 5
99 3 1.0680646206834508 -2.1997611464824454 -8.023942006941645 -6 1 6
94 3 1.2470008725052857 2.3052733278062534 -9.400115532686815 -4 6 4
223 3 2.4247479722296026 0.009721364692129978 -8.863647354846423 -5 1 4
92 4 3.3831169661436973 2.3575360124202773 -7.743511676215246 3 7 3
194 3 4.927757146297587 0.1297055033898816 -7.686354381042037 -5 4 6
203 3 -1.2187317825359951 2.6428791740348947 -8.706100165428762 -1 -1 2
33 4 0.6541874797559772 4.57200714402842 -7.762428958716077 1 3 2
6 3 -2.064342600070919 4.68530744561965 -7.65680153501023 -7 0 -2
188 3 1.365637734227882 -8.054802951306346 -3.4715197147605856 2 3 9
189 4 -4.802573610418813 -4.912223641517446 -3.0401718904931503 -4 0 1
221 3 -3.243164633669893 -7.122345257645737 -3.0329582915272093 2 3 -4
181 4 -5.232417177600141 -2.914321440728718 -5.393191715153478 -5 1 -6
206 4 -7.328823135987144 -3.01123581634303 -2.642554251461391 6 5 -4
197 3 -3.028830424818985 -5.299523346927017 -5.027825361918692 -3 7 -1
227 3 -2.877129878232124 -3.1696291785938584 -6.733663420891231 4 -2 -11
225 4 -0.8620543461344579 -6.694292026746578 -4.342922361114608 -7 3 -4
229 3 0.1380210214925227 -4.110712695836307 -3.879656048773275 -5 4 3
85 4 -2.3852589887377027 -2.8594874892715128 -4.086533567806275 -3 3 -5
219 4 -0.44157929955114356 -4.322403744181513 -6.53855934043959 -2 0 -3
216 3 1.6196920114063689 -2.882100987638976 -5.59140669394582 1 0 6
234 4 1.9955465159889874 -5.938409567902542 -5.08752767075285 -1 7 0
109 3 2.212152984041903 -4.490755496671595 -7.265998402859937 -3 4 0
89 3 4.131512336899353 -3.90988779191277 -5.521894427088288 -5 4 -1
87 3 4.359585490724101 -5.985964540591966 -3.905369300072868 -4 5 0
58 4 2.8423316349375702 -3.535793948205495 -3.2546665575332945 0 4 -3
220 4 6.168281164901902 -4.021163930396574 -3.9292051549419087 -4 7 5
230 3 -8.088175937010625 -0.4119740812109207 -2.9217340625409607 -6 2 4
174 4 -5.857561263662857 0.12356148782532446 -6.675591033490651 -3 5 -2
186 3 -7.417510499462406 -1.342718481474575 -5.055614568493457 -5 -2 4
177 4 -5.434334909097477 -0.6371980169242483 -3.4177003755300523 -1 -2 0
180 4 -7.233675768421333 1.841810777137674 -4.2087931266187155 2 1 3
69 3 -4.660250824478262 1.9702968194049029 -2.6038233060936458 -5 0 6
226 3 -4.397733634553156 1.6961134189598013 -5.077846587134664 9 9 -6
196 3 -3.5842459405342653 -0.7709568703293611 -5.516819794418975 -3 6 -3
98 4 -2.3168499113632506 0.163637342051643 -3.180162587346313 2 7 6
65 4 -1.9704229010131744 1.645165723943611 -6.295747739596066 -5 0 1
7 4 -0.771408770662632 -1.2589909875670287 -6.132049783228721 -8 2 0
164 4 0.5467353648183931 -1.5222231725508764 -3.309663054759599 -4 6 2
84 4 0.20364239395616252 1.39902771936714 -4.287148671979851 -1 0 2
95 3 0.6423723691350762 2.0427799116659777 -7.02111323242095 0 9 1
224 4 1.9723613761704626 -0.07344794317844495 -6.197939325675121 -2 5 0
100 4 3.6162928196318203 -2.1505762309996825 -7.4473753296542125 -9 4 2
222 3 4.25178467318745 1.1317072602566605 -5.482609935584465 -3 6 -5
86 3 3.653962148805547 -1.4534590271082135 -4.603959542971694 -3 1 1
90 4 6.032639454807793 -1.2985173436515804 -5.592376089151481 -10 4 1
10 4 6.787241592315353 1.9119201422937577 -6.1016031785338285 4 7 -1
173 4 2.9930665114877404 0.5826711979908235 -3.00884068258899 -6 5 4
106 3 5.790709859890072 0.3736899168252169 -3.61166419684639 0 4 -5
233 3 7.543475518784141 -1.843992163402871 -3.26630976156674 -8 3 1
72 3 8.186408445293416 0.04909035061068838 -4.619495491048477 -3 3 -6
46 3 7.686272556280121 2.306057856034722 -3.6738259603748364 -7 5 0
214 3 -5.934408937532433 2.8851932036659425 -6.505239444696288 2 -5 1
178 4 -5.049926925254064 4.382622984534933 -3.8802338980263427 -5 6 1
152 3 -4.215749523720871 7.1528925830141725 -3.8489200922776154 -7 4 5
176 3 -3.649636162254885 3.7767472161777573 -6.159318283290039 -5 2 4
60 3 -2.9711093313437535 6.0584141252709145 -5.607650426744137 2 6 3
182 3 -2.5262998906549825 2.8248720541608927 -3.883714865861532 -9 2 -2
117 4 -0.8899568195462173 4.472747553942306 -5.105021101209151 -5 3 -2
114 3 -0.7861365667207292 6.7055498476166395 -6.627426133073975 -6 -1 -7
5 4 1.4348656036377025 6.6581006617549185 -4.966896378475424 1 4 -1
215 4 2.2999439488901032 3.389592667928576 -5.101801988757657 -1 2 4
91 3 2.4770333586231894 4.73801039209925 -2.877844199149039 1 0 -1
9 3 0.3385755847741957 6.200555590569382 -2.550094547371997 -8 3 6
61 3 3.0619189509326454 5.286717369665425 -7.003114222175117 6 8 5
23 3 5.077977097253709 3.8342422100113556 -6.225625310374972 -2 4 1
74 4 4.442173445416439 5.860132746274065 -4.642802888502186 6 3 4
66 4 4.949321304282784 3.049969730760866 -3.511840263580667 -5 -2 0
25 4 7.281072539183374 4.842254148157411 -4.381289519306087 -5 7 4
8 4 -1.4444020523400167 7.734161818486152 -4.069451516087413 -1 7 -1
14 3 0.9777219505091805 8.535467991769472 -2.6596229682268913 -6 5 1
218 4 -2.7565221951368897 -7.652607628590645 -0.17273358773872088 -1 -2 -7
42 3 -2.888607784027209 -8.521780748884442 2.459033547698768 -2 7 -2
161 3 -0.8839504166344465 -7.940192888098412 -2.095236484998952 -1 1 -5
110 4 -0.25237668157353477 -8.890641116346865 1.3966058758564655 -2 3 -2
210 3 1.2042476563837043 -8.344395035019586 -0.8356263500920859 -6 1 -6
205 4 3.0888401626223954 -9.03334887240059 0.8552267254237201 1 6 4
195 4 3.7173717914877726 -7.831039571968914 -2.157040844079674 -5 4 -2
81 3 5.459450569518751 -8.08338781467391 -0.07956733233614977 -9 4 -4
228 3 -8.32739733726595 -3.309405872802664 -0.1408357907952507 -5 8 0
169 3 -6.502856859998799 -4.900611906590374 -0.7030093878507332 8 6 -1
131 3 -4.9738257759607585 -6.8786654341118245 -1.1433429754211337 -1 2 -2
209 4 -3.950446014780219 -4.34083268010166 -0.030919774384360374 -5 5 0
17 4 -6.568344860124018 -3.8866398539059372 1.8882560878581691 -4 6 -2
73 4 -5.048552491830572 -6.743741109412606 1.7059632219235092 -5 0 8
59 3 -4.271754478985398 -2.5620058212904127 -2.094580321666415 -4 1 -3
167 3 -2.1530802337593014 -6.265646168504609 1.9948772211849757 -3 -2 1
192 4 -1.820184547792075 -5.071227016349687 -2.082384119416787 -1 5 1
107 4 1.3007777381228935 -6.1972639968866 1.8255075888426413 -1 0 -2
201 3 -0.499133706851297 -6.4413090506300765 -0.057890393299234455 -11 0 -4
202 4 -0.9772482504017068 -3.9852961834832046 1.0704735477532938 -3 4 5
79 4 1.4115986315883855 -5.87909184258104 -1.8057069923345284 -1 1 -4
156 3 0.5428940189043401 -3.3950536658089017 -1.2680583466579225 1 9 -5
157 4 2.4905702297903725 -3.4607296875788105 0.6205801602016593 -3 1 -1
51 3 3.4958370680946587 -6.476962123784918 0.3949256892759936 -1 0 0
236 4 4.455810318142399 -4.860421851465705 -1.3975286459973886 -1 2 -5
93 3 6.366659193399909 -6.462787254221163 -2.033165479561484 1 1 -4
75 4 7.547313427455277 -3.69184982484009 -1.0776948275633325 -4 -3 1
193 3 5.435794679615695 -3.329992166147048 0.6080262981957247 -11 0 0
39 4 6.298953543876099 -5.8978659175451345 0.8166167006466992 -1 4 3
235 3 7.243081351171482 -3.8325632695317444 2.2326547587213508 -8 11 -3
125 3 -8.967760481470277 1.787911705212719 -2.0461723456087277 -6 1 2
198 4 -8.95997167981087 -0.7106132236644059 -0.39995929680846853 -7 8 0
148 3 -9.66431222573829 0.45342781227060935 1.9810548538431976 0 2 -2
165 3 -8.476370637784072 -1.9815828082405356 2.0099083261081274 -10 4 4
153 4 -6.508719662597952 1.3105878849554282 -0.9776955350886943 -8 -3 1
162 4 -6.074855306281653 -1.823401662519744 -0.1934515776953681 -4 5 3
207 3 -4.038370068143659 -0.17506201110336236 -0.9797826774282626 3 1 -8
133 4 -6.947126604785984 0.32233738287505537 1.963483668905627 -1 8 0
175 4 -4.193421718911163 1.531587199765869 1.1496488844949362 -2 1 -1
49 4 -3.4895647017142517 -1.457465548724189 1.4150169038589866 -1 5 4
184 4 -1.82032875637999 -1.9582260626808932 -1.0765783701395801 -1 5 1
159 4 0.43404155964855684 -1.0385409396623158 0.894663017987454 -10 7 -3
150 3 0.33622925889061317 0.6044950288485045 -1.4751749740619913 1 1 6
199 3 -1.7630971508747506 0.4486799692026296 0.2168033602265398 4 3 4
146 4 0.4061208502902945 2.464426545594763 0.49104019563132667 0 0 -2
82 3 2.3728387401937754 -1.5210449023212431 -1.288401256714734 0 -3 -2
67 3 2.5128896153520652 0.6131380539499358 0.12371105825284402 -9 3 5
97 4 5.163868695122641 -1.7508719696539614 -1.9875514916103678 1 5 -1
204 4 5.187161866508411 1.339875075237375 -0.7101769399329704 -4 7 -2
40 3 4.244708030105581 -1.1354159599879474 0.3664834088456865 -2 2 -3
62 4 7.182859128347208 -1.0152576463830099 0.7408055182556753 -10 5 -2
160 3 2.6638003730172986 -1.0458070950088112 2.3781261386342996 -2 0 2
54 4 4.699921428865657 1.0449133954304393 2.216279467277806 -6 0 4
64 3 7.6413856238684215 1.7370453335624825 0.5113928076961571 -4 -4 0
134 4 7.84767766451655 0.32280653450248464 -1.9001149909378507 1 3 2
154 4 -8.94859726837595 2.611496319930332 0.5350211373999252 -1 2 3
123 3 -8.392316712320355 5.035377336083698 2.0659337785393497 -4 2 5
37 4 -2.6162644621864213 5.4680199137394245 -2.479442030382091 -7 4 1
142 4 -7.437931239321662 4.135988432737126 -1.8029931621407735 2 2 -3
119 3 -5.474354681409501 6.197944222607137 -1.7518144099307051 -13 1 7
113 3 -4.822377662020069 3.791123766260127 -1.0198169493820008 -6 2 -1
179 3 -6.843737320486558 6.04449939855048 0.18716466247198554 -1 0 -5
185 4 -6.192424237465621 3.7463925133894214 1.3004696829149953 2 -1 -1
149 3 -6.2347116016664765 6.337776065925908 2.4769831473043 -10 1 -1
140 4 -3.8202234013214413 5.819442707200271 0.5056110209998506 0 0 -2
190 3 2.3741342092003794 2.604559747831333 -1.4982488516636634 1 0 4
138 4 -2.4106226264869797 2.5536783075583354 -1.1195316684364727 -1 0 0
27 4 -2.2157677591062943 3.5807647192709773 1.8939135095477186 2 2 0
183 3 -1.1710252373912413 4.928074283143765 -0.23979580263816186 -5 3 -2
120 4 -0.9140920515441087 6.491835407213003 2.028051368378857 -4 -3 1
70 4 1.5135281149695328 5.474760114616255 0.05785807345614648 -7 4 -3
71 4 0.056313712741006806 3.6375087968306485 -2.4149647804322525 -6 2 -1
36 4 3.148325131808091 7.130430393746891 -2.14989566719826 1 7 -3
88 4 4.274049238325293 4.2886066531272045 -0.8846932900274197 -3 2 3
213 3 5.81820834210493 5.968474638619195 -2.242929558195571 -2 6 -5
31 3 3.082151540949439 2.920563590936618 1.076417269347507 -6 5 -3
44 4 4.5745842715717995 6.803531137196332 0.595748270136929 2 -1 2
22 4 7.226312977069134 3.6978790125016774 -1.4220418960414718 -3 1 -2
30 3 3.238033369636071 4.94957546499492 2.1311020287580558 -7 2 -1
24 4 5.985607314258893 3.703574229429801 1.6135616884442225 1 1 2
29 3 -5.198041562564546 8.000499700236496 0.9084687225696941 -6 7 0
115 4 -3.693133397075587 8.24722971271325 -1.3891536215570337 3 1 0
112 3 -2.563499365575451 8.463596682784386 1.1221685481555586 -3 3 4
187 4 -0.7407855582831192 7.787329158381973 -0.7293630778263559 -1 4 -2
68 3 0.055026828954202266 8.899804845613133 1.6453367483198174 -1 4 -1
217 3 1.8206922399021832 8.255991975869055 -0.10918259687074208 -6 6 5
57 3 1.3597903436468002 -7.671872072138132 6.121212493933129 0 9 7
108 4 2.3316223054590295 -8.29203608484475 3.752668937233185 0 1 -2
104 4 -0.6979323279888408 -7.597626447673377 4.081685902363858 1 5 -1
102 4 -7.772079569069547 -3.4825131150521673 4.6329145503358635 -4 -2 -1
231 4 -3.747020817168408 -4.0914121792939175 2.9788263347209307 -1 -4 -2
163 3 -5.961295541635896 -5.487213730696331 4.065299488027338 -3 -2 -1
80 4 -3.4956197390115014 -6.636639764216364 4.555061991676828 -4 5 -2
19 4 -5.033665050938625 -3.892614513840777 5.9819282344052125 -2 6 1
103 3 -2.373489607487815 -4.1695938532459635 5.364985174347235 -2 4 2
50 4 -0.9112403057151345 -5.915459857576113 6.676005442833898 1 6 2
126 3 -0.7465931819691624 -4.920566730618642 3.7888994473584257 3 1 3
12 4 0.19477274264876673 -3.085858027796101 6.034622921796152 -4 11 -4
56 4 1.7675640351102857 -5.313340120731896 4.748517246938649 4 0 1
43 3 1.191847798902707 -3.2258634599475293 2.981932795027274 -7 -2 2
78 3 4.679795719823206 -7.540125205417871 2.5403161387503586 -8 3 2
41 4 3.0712677305865745 -2.5520985063682007 4.850491101916278 2 10 0
83 3 4.0539507815270746 -4.261724972201121 6.67362280343041 8 3 -2
47 4 4.469987780021965 -6.6061134521887865 5.329243632591095 -2 -2 1
101 4 4.109153568814783 -4.840141671873002 2.773466673158304 -4 2 0
16 4 6.173617628292444 -3.6512942016270222 5.003824824147234 1 3 -6
76 3 6.486328053693795 -5.948100974875115 3.542499298807325 -1 -2 1
130 4 -8.897499700955718 -0.7082543898736818 4.252539418789405 -7 3 -5
111 4 -8.155383616474074 2.527661470175024 3.6011529779705373 -4 6 2
122 3 -7.005309878516153 0.7082202935942937 5.284764637205993 -6 0 -9
124 3 -6.825647593932351 -1.5421086187692006 6.276629219204222 -3 -3 -1
168 4 -5.653809997005126 -1.4915961544987921 3.8086148524641548 1 3 0
208 4 -5.140830544899444 2.133465792133152 3.8580654541931683 -4 5 5
166 3 -3.4140231463195687 0.04568994601614352 3.754758566585778 3 11 -3
55 3 -3.392306151883489 -1.8318715757355333 5.367789891771749 -5 -4 -2
172 4 -4.605991456601393 0.423966381250669 6.288145119409544 1 3 -9
145 4 -1.3459149121297216 -0.17421125486157832 5.988345128188847 -3 0 0
128 4 -1.0949097449003147 0.9146716270339993 2.838580311948893 -4 5 -1
232 4 -1.3206840381346796 -2.219901150551873 3.5525290770463682 1 11 1
137 3 1.5701678850546208 -0.6192330862110713 6.456100041797975 -4 2 0
141 4 0.9163057658572004 2.0075360671688527 5.327402127792702 -2 3 0
158 3 0.9143835458214638 -0.6602581127165931 4.040006606784865 -3 -1 1
35 3 1.796279849219782 1.317287257962353 2.6668132866614407 -2 -2 0
21 4 3.6428891280181133 0.3598268773809892 4.991078096893224 -8 2 -4
63 4 5.198245963967762 -1.8887608391100734 2.8425678784470767 -8 3 1
129 3 7.249503060836996 0.9081530339308016 2.894355118981447 -1 0 2
28 4 6.549179813025876 -0.39535810401575266 5.1204598908414445 -3 0 4
13 3 4.862810294152257 -1.7074411905642943 6.801247975590994 -2 8 2
3 3 5.55806971127671 1.0707628491149614 7.022195546606763 2 3 -4
53 3 7.858088558750166 -1.7174350542849033 3.3388016009253585 -2 7 7
200 3 -4.365188354414347 4.6010975543676444 2.975019473361762 3 8 -2
171 4 -3.8697791013336684 7.31506444355616 3.238779560803261 -3 1 -2
34 3 -6.685486364919393 4.626511221884594 4.202460301254021 8 9 2
105 3 -6.2593057636393175 2.8708939045742037 6.183040670572187 3 4 -6
132 4 -4.439282486416697 4.849816412948672 5.6001622935688244 -4 2 2
170 3 -3.8881396279766065 2.6205487530045817 7.350554162388415 -9 3 -2
26 3 -2.5509831171186694 4.7625562037724105 7.440711268246066 -2 9 6
147 4 -2.3622905010723763 2.6633136021715007 5.036176335234976 -3 6 2
127 4 -2.234730415692997 7.116184157174181 5.898976437404057 4 5 -2
144 3 -2.0963685912268684 5.2698623984859445 4.059588170235642 -8 4 -4
116 4 -0.31299973260565495 4.716358210038767 6.110740999627461 -5 1 -2
15 3 0.10018757282983033 6.9494626401189565 4.527458970097917 -6 4 -13
11 4 0.7440857228359553 4.187225021226756 3.101338425020268 -5 4 -3
118 4 2.103722259842678 7.323627094747045 2.631073733532431 -4 -2 5
2 4 2.5437255882710796 5.475399558936361 5.278409886757864 -6 2 2
1 4 6.026714891840136 2.8091474402396637 4.78311760911387 -4 2 1
155 4 3.557319015104526 2.896139569984811 6.689156088938728 -2 3 -1
38 3 3.467675002864533 3.130484360114276 3.8069976200276026 -5 7 -3
32 4 5.053717042442464 5.754194128203809 3.6899615641634513 -6 2 6
139 3 5.085298768276583 5.039069260385851 6.202763763985985 -6 -4 -5
135 3 -1.554113939360426 8.634984491426133 3.591507226446473 -5 3 -4
121 4 -2.2934953662147524 -2.838971712907708 7.717906998527215 -1 6 3
18 3 -0.030460122344137305 -3.963690749584859 8.654543758201177 -6 3 1
77 4 2.0151421919712837 -5.676495941273634 7.677172371307138 4 0 -2
48 4 2.4199232673310296 -2.680471717072869 8.086085104924258 -1 4 0
52 3 -4.676581025218858 -1.7958915067595393 7.615914081415041 -2 7 1
143 3 -2.772447104773949 -0.06790730063809094 8.237647271009507 -5 5 7
45 4 -1.2783242799800003 2.2377352747290304 7.910965897105486 -2 -3 0
20 4 -0.07666879909191089 -0.8835740768057259 8.709650522990584 -7 1 -6
136 3 1.192881053776033 1.4321620318801875 8.017770547997223 2 -4 4
4 4 3.422353861592127 0.15811447773398682 8.145774342876184 -2 7 0
151 3 1.3252758743643633 3.789108878353839 7.867439491495921 -1 3 5

Velocities

191 0.7863045187527743 0.9103807316264642 -0.8628388084467451
212 -0.21879464114154068 0.8393537249726207 -1.1718578446520471
211 0.1886261007370808 0.3938290111367352 0.889008406473653
96 -0.3636721542081199 -0.6023904665001318 0.3451237252460465
99 -1.0959138020620303 0.947760200967335 0.9691589867584826
94 0.29191489653922215 0.13922932236594282 0.207164685034305
223 0.6822712948859218 0.30163062449558464 -0.032180937237252245
92 -0.5126406181277985 -0.21754863556130574 -1.4019770652174097
194 -0.09609949831372548 0.029644409301089282 0.26781488250309615
203 -0.7751598894099191 -0.7269521058254469 -1.112577695676578
33 -0.2167197764407702 -0.3117310118038121 -0.6690913328723894
6 0.5543940304091977 -1.9624223944313801 0.3105035960877807
188 -0.6917061634661263 0.12647823503824773 -0.3461447835718745
189 0.15877926094234585 0.08487305340375453 -0.9390189270555994
221 0.8228325157549538 1.2241099482236513 -0.4782774952847869
181 -0.16377211069373787 -0.2497056000901855 -0.7869231685108162
206 -0.8730988792380324 -0.25771243757872936 -0.038898326042041145
197 -0.30069846884573787 -0.39923525609593036 -0.7347186687902124
227 -0.8737099946233983 0.6023525692106249 -0.46136109083015153
225 -0.1335634034428492 -1.1042006780306515 -1.3125394048007764
229 -1.216245855345342 -1.2003545824473087 0.18436161627591408
85 -0.8608924790165252 1.1832197253021608 1.2874955313669756
219 -0.4158271189048717 -0.7277862042631877 0.1692090578019825
216 1.5056150308878593 -0.2241823886980007 -1.0242187254276813
234 0.6553666684901197 -0.04738354369257714 -1.3990363985301904
109 -0.10698531942238138 0.2440476116176492 -0.9935000447663092
89 -0.8714550812854355 -0.46687140751021844 0.2390071530625719
87 0.26406243195326146 0.22947072320651396 -1.813297158422637
58 -0.2937806601575409 -0.43265013791650475 -0.38880638901398634
220 -1.049384353905359 -0.016820528805023865 0.2680844950509502
230 1.0787706240051171 0.5886334007504724 -1.2531246445806736
174 -0.037813893244226356 1.1365118150433795 -0.05271206748358917
186 0.8212531987900277 -0.15705660977322836 0.7176546635662535
177 1.087886540828407 -0.10743853891911573 0.42803119317630695
180 -0.2891415202465861 -0.47648740280641916 -0.22377581229358484
69 0.3201646598154728 -0.3914902916475025 0.8990656297087932
226 -1.4246031837647628 0.3805028511133252 0.9382526219240588
196 -1.1979813935036274 -0.9909264072750869 0.03262992631781525
98 1.2958704680772273 -0.7489975414797457 0.851590667937405
65 0.09371579669089396 -1.12076570614972 -0.04196885041897043
7 0.31958839309885795 1.3835053603620002 0.15408186913332445
164 -0.4247336529833844 -0.3994724562587913 -0.3049909437166274
84 -0.14544760557064873 0.5856375289490606 -0.19038589343880014
95 0.03606892803386677 -0.42615887807892905 -0.20645084159302182
224 0.45972092441800605 -0.12475880507229929 -0.4158269294027986
100 0.773075485471936 -0.7665256382739165 0.5947339846394187
222 0.8808443206321933 0.3880647206797953 -1.2626495717791457
86 0.35989377754479907 -1.274533253527614 0.5651561472531178
90 1.1347634696343956 -0.4883982967803626 0.0881595385763503
10 0.42697218447151125 0.31000051487277175 0.9894859379239118
173 1.314148365519887 0.11519822105354273 -1.5872120959601626
106 -0.3110659936168167 0.08176759937085629 1.332446267879046
233 -0.15880022170584965 2.5272804378920255 -0.11569035104704875
72 -0.8438030837639902 -0.591989085262154 -0.978937781354776
46 -0.8242477966100478 -0.7742839974397706 -0.029758719143670412
214 0.5932107162021425 2.286771675113152 -0.568440054059313
178 0.24101835697603904 -0.8189710101435044 0.1108817157858737
152 -1.0270780802007018 0.5517863411150785 0.5215388223567724
176 -1.3656067565285674 -0.11401100290398329 0.8288635263909565
60 0.06670535805073007 -1.2945810191509017 -0.10425552309279867
182 -0.9500600153600892 -0.07384107643115634 0.4940141196904051
117 -0.9357471861035909 0.4729864497649339 -0.6701760335039844
114 -0.4229472414753427 -0.3173898742263671 -0.4428328473915812
5 0.3142816170385856 0.8512230579640542 0.5831092669155735
215 -0.022649966665158616 -1.0113730681767221 -0.009313044190520097
91 -0.31499832334152716 1.785519401732511 0.25306099024727313
9 -0.12046977198327635 2.052629553856967 0.17742063284295387
61 -1.1722814373844013 0.018005697561873778 0.5920349976976373
23 0.1945881984492044 0.4260607272332358 -0.0327278751787013
74 -1.4321303737612767 0.827003939244447 0.5398403396551508
66 1.3563218979939318 -0.6550945424878218 -1.1032844830813462
25 0.9076588750821613 1.1287001285951805 0.3839283612224992
8 -0.24721041201728675 0.6093903848038078 -1.0965405318254084
14 -0.36410767163157226 0.5830696935779224 -0.17294730655497756
218 0.11668342036256467 -0.7351099514883496 -0.07162550638346321
42 0.8624827789929911 -0.29060569053074026 -0.7572211762954753
161 -0.6114073233734791 -1.033671554042088 0.5274650304195879
110 -0.20166138257495908 0.22365389645944694 0.5451085150146846
210 -0.5693222369250664 -0.6838785292055156 0.3076587130289999
205 1.2945899782028747 -0.23493791171197007 0.6504774296791477
195 -0.6584572477760676 1.1663417959620808 0.4113415140180789
81 -0.6035361845131996 -1.4641128578677063 -0.32862396126768373
228 -0.27025763945980785 0.9665845638369601 1.3125742335414288
169 0.4862725208050878 0.13142029358403656 1.2811670624002802
131 -0.7754604939327864 -1.2755615366170387 -1.6176614201495576
209 -1.3456134789541478 -0.07425980916583769 1.151635380431421
17 -0.5119160105022075 -0.12490234187327248 -0.02068635840612834
73 0.5193757932023411 0.22540322514404734 -0.28496782788597097
59 0.6964765856799862 0.03034989814626327 0.8810575431171804
167 0.28717098378682393 -0.45718524782501135 -0.4779690149304863
192 0.17959826679417865 -0.22070004228137194 -0.040334613337038014
107 -0.8118236085949457 0.09584226916089741 0.8405576309235134
201 1.2190019412342294 0.9635037188236434 -2.2280961778403676
202 0.9567440154337835 0.09231911254594605 0.6738947565318031
79 -0.5478659558394822 -0.10390638762846569 0.3162001519801281
156 0.3007525978487658 -0.3323719401810573 2.059695063574316
157 0.5270337645800632 -0.1483676750803265 0.11736708337858225
51 -0.5472731427935305 0.01008855293295554 0.21031242283971058
236 -0.1773500363385708 0.18180838132965005 -1.830293824116338
93 -0.40887583142042144 -0.1481616199122284 0.3701434365941808
75 -0.6567495688311615 -1.5948305159425331 0.10732626395826018
193 -1.27029854208835 -0.8598517529416818 0.6149966115032793
39 0.33343881080135823 1.224255040488171 0.13605290532083356
235 -0.42824517119051214 -0.9568045879947745 -0.5281383044355487
125 0.06304735420044308 -0.44193238547043673 -0.5665756511501724
198 0.4918172163865953 0.3464517913527755 0.8210268138244644
148 -0.1531186524702157 1.1859474197252595 -0.837201516730118
165 0.295583212666389 0.6884546826584218 -0.14621751631972477
153 0.29959666966151155 -0.4952212742979802 -0.014450763812199965
162 -0.40139491750049655 -0.36067786263866286 -0.8083055713577215
207 0.3395472510004768 0.23902161650630357 1.1418459312617546
133 -0.4773577375429368 1.020909083870575 0.04950050671915662
175 -0.8731136980146876 0.23497863213873135 1.4057065440832304
49 0.7599231038036085 0.4742960478615493 1.138281906678673
184 0.29562077598075287 0.6622515344226675 0.5532558602971469
159 0.35586264580788035 1.0842183095771074 -1.989669538712565
150 1.3327442480803997 -0.43687678118765194 0.6610654779995377
199 -0.5911256746701065 0.8280198358685018 0.41162784361564725
146 0.4455003932814267 -1.0704534063327258 -0.6141565335152055
82 0.8392266905551321 -0.9906543007244083 -0.6375838119545729
67 0.5425949518093184 -0.2619988988372746 0.3905504053634305
97 -0.40577699564954106 0.07912015824797985 -0.3590096875220971
204 0.7101557822901478 -0.34902628563749766 -1.0598126406618962
40 0.3748144692808872 -2.050962203066749 -0.2580867341233298
62 -0.243055596400178 -0.6902199012142984 0.9759232171231517
160 0.8375360110751742 -0.11062706608011033 -0.3650086353610977
54 0.7778200001014107 -0.9161424353992196 0.32116862106802363
64 -0.05318279879199537 0.3995475952967913 -0.43323692980621925
134 -1.10144255600243 -0.3170842019039572 -0.2691325079274616
154 0.3210497440002683 -0.4324812542902017 -0.7198070247425232
123 -0.22069321190828092 -0.16733326510864763 -0.672648903905826
37 -0.20764107552123717 -0.558541412013268 -1.1037766111286085
142 -0.3436836668220361 -0.48212232574116376 0.10432364011025595
119 -0.14959986974203665 -0.17478739177207253 0.49711708047081815
113 -0.9740232193254634 0.39494165973232764 -0.12301319273696285
179 -0.43677114670570394 -0.30838769875054317 0.5009689224508047
185 -0.45519602821523913 0.6944161345848062 -0.1595673173668586
149 -0.5129223158238572 -0.248878656353323 0.13550617877701024
140 -0.5095906386874355 0.37804338429124373 0.23080045089837542
190 0.23770884736098152 0.25182652370351827 0.5388668918496163
138 0.014613876974067882 0.8599554709164883 -0.18051594339505417
27 -0.9391248215965703 0.507282407823497 1.7788177355331793
183 3.0010487142907913 -0.1678969829951967 -0.7301752940114264
120 1.1932120274204177 -0.027613680652093145 0.5881157311369923
70 1.153287435861253 -0.3945847153656701 -0.780314075394832
71 0.3592203984693928 0.27703354148272835 -0.20135104007397064
36 0.5406281695927917 0.09364244638570245 -0.2717410930921097
88 -0.7050267534259088 -0.3562065424037277 0.5008792633734593
213 0.49720846648244765 -0.6481435338614779 0.6075661608351917
31 0.06317354260009336 0.2703523706721969 -1.5719419421117569
44 0.11847613861539802 1.1958740843986075 0.23653881853396153
22 0.6271177325174502 0.8069054417489963 0.20887055892257983
30 -0.4749557663242831 0.4264729239841804 1.1147145373449203
24 1.4190385966687347 -1.3658079056662267 -1.0420020271227968
29 0.4464150298605195 -0.03122934064069537 0.4868415291290574
115 -1.0851503078717346 -1.5308830887909022 0.9571067117062556
112 0.4935162380985456 -0.5510887005142552 -1.0278760840571854
187 0.359935277937113 -0.8936194932481046 -0.23374046945219049
68 -0.7415521824561315 -0.6659059208720237 1.5331746376279496
217 -0.015480325211157534 0.9604392637634419 0.2150028541381406
57 -0.21989515983093766 -0.7487884022449249 0.4309534880922174
108 0.1657786331814734 -0.21248051999373055 -0.7519768143413851
104 1.1092406445307463 -0.3758311872737318 -1.158754845289944
102 0.35832537760214683 -0.4931724650052256 -0.37466103619489194
231 0.21318496349334043 2.3255916062956303 0.7261420101392404
163 -0.34771201822851666 1.1165153058113666 0.1354981022166305
80 1.3852593933553143 -0.08943126401093524 -0.2205629686479054
19 0.3034719959137481 -1.2715551259643594 0.5491918063202694
103 -0.3013467372122694 0.5298145347958447 -1.062784983516832
50 -0.05328600354643016 0.8095694748764402 0.5987239291171378
126 1.5502978789570288 0.08641041146585995 0.8415530658169913
12 -0.12471690773328546 -0.35324151959551425 0.04624345188030254
56 0.7426270783699932 0.5141043718586286 0.5437773376760604
43 -0.47341869671340603 -0.06103918464561397 -0.9578629952829917
78 1.3161031211246026 -1.9445341562626157 -1.871000696442389
41 -0.813123503178874 -0.7959358865514536 1.211975676424969
83 1.5404496595240516 1.4377954949936542 0.7678333395499692
47 -0.37475885959368543 1.8404602042103129 0.24972273934990577
101 -0.42004898306069904 -0.38482389972826453 -0.029778314189995377
16 0.5481695359359812 0.6601753830856406 0.3583154395197912
76 -0.5586709928828956 0.06708866154910714 0.976774240280518
130 -0.4060671881717146 -0.8191527202425425 -0.1492137422613003
111 -1.031452985848525 -0.15106041550434735 -0.007807118804305
122 -0.9624100356414023 -0.1646980220881394 0.5872178415774958
124 0.1836632469437717 0.4585791558335868 0.845680384445868
168 0.023674623713449392 0.76558450460104 -0.3485870909134118
208 -0.3917528576014627 -0.8489133831293071 0.11477184182559062
166 -1.6429776077857314 0.19777673987561237 0.45288656989717
55 -1.6331125881905497 0.16866719052548415 -0.25903169049032465
172 -1.0397524537774916 0.8971573135605531 -0.0011963930696012731
145 0.20873969937953005 1.537054229568834 -0.6006179422096101
128 -0.7665227789888618 0.33844522907029684 0.04564688674421185
232 0.20276214024150396 -0.582379989570347 0.16956328033906357
137 0.06409383374981185 0.6560380193786326 0.42819009255506574
141 0.5872005033186749 0.0022325170172898556 -0.7791882274110689
158 0.18962885386691844 -0.1269859029042517 0.2639053536382997
35 0.43160710429197474 0.026396408042801307 1.0470371295802685
21 0.19890593205574464 0.3098880926675173 0.867615352616924
63 -0.10209738073013767 -0.7121959992081661 -0.14630871493595762
129 0.26767705626662813 -0.5789484315095782 0.25196088150930607
28 0.4447827148275804 0.6848346884336975 0.09744834872244071
13 -0.5246342513462177 1.6627336575070037 -0.3130352255484051
3 -0.18381093993871683 -0.09670772560062421 0.43495250127654655
53 0.019326019055964098 0.07956841418596125 -0.5158411518987464
200 -0.23697153052227737 -0.8380116441852054 -0.29024122659839346
171 0.5526480996802541 -0.33232786019948074 0.40876769341565466
34 -0.1682937159260722 0.0007206840436116187 -0.45725788422316294
105 0.3827394130028991 -0.10586880682812765 -2.064254485993431
132 -0.5778558960073816 0.25375577285868056 -1.3494384496750842
170 1.0005798652363005 0.903810791614638 -0.36111962398878317