LAMMPS (29 Oct 2020)
##################################################################
##IN.CLUSTER_ANNEAL_DATA					##
##Anneal and segregate already prepared amorphous cluster	##
##Dependencies	: none						##
##Influences: /data						##
##################################################################
## ver. : 2020-07-17, Syamal Praneeth Chilakalapudi, KIT, INT	##
##Author Email    :syamalpraneeth@gmail.com			##
##################################################################

#--------------------------------------------------------------VARIABLES FROM COMMAND LINE
variable        pot string ${args}
variable        pot string Cu-Zr_4.eam.fs
next            args
variable        e1 string ${args}
variable        e1 string Cu
next            args
variable        e2 string ${args}
variable        e2 string Zr
next            args
variable        x equal ${args}
variable        x equal 50
next            args
variable        y equal ${args}
variable        y equal 50
variable        frac equal $y/($x+$y)
variable        frac equal 50/($x+$y)
variable        frac equal 50/(50+$y)
variable        frac equal 50/(50+50)
next            args
variable        T1 equal ${args}
variable        T1 equal 200000
next            args
variable	heat_ramp equal ${args}			#0.05/ps ramp rate
variable	heat_ramp equal 0.25			

variable        th equal ${T1}/40			#thermo and dump values evaluated
variable        th equal 200000/40			
variable        df equal ${T1}/20
variable        df equal 200000/20

variable	lat equal 3.6				#lattice parameter to define spacings

variable	T_hot equal 2000
variable	T_cool equal 50
variable	T_heat equal 1000
#variable        T2 equal (${T_heat}-${T_cool})*((10^3)/(${quench_ramp})) #0.1K/ps quench rate at 1 atm pressure
variable	ht equal (${T_heat}-${T_cool})*((10^3)/(${heat_ramp})) #0.5K/ps quench rate at 1 atm pressure
variable	ht equal (1000-${T_cool})*((10^3)/(${heat_ramp})) 
variable	ht equal (1000-50)*((10^3)/(${heat_ramp})) 
variable	ht equal (1000-50)*((10^3)/(0.25)) 

variable        t1 equal ${T1}/10
variable        t1 equal 200000/10
variable        t equal ${ht}/25
variable        t equal 3800000/25
variable        ht_inter equal (${ht}/10)
variable        ht_inter equal (3800000/10)

#--------------------------------------------------------------------------------INTIALISE
units           metal					#fundamental LAMMPS and MD conditions initialization
dimension       3
atom_style      atomic
boundary        p p p
lattice		bcc ${lat}
lattice		bcc 3.6
Lattice spacing in x,y,z = 3.6000000 3.6000000 3.6000000

read_restart	../restart.msr_20
Reading restart file ...
  restart file = 29 Oct 2020, LAMMPS = 29 Oct 2020
WARNING: Restart file used different # of processors: 64 vs. 76 (../read_restart.cpp:697)
  restoring atom style atomic from restart
  orthogonal box = (-32.899909 -32.894461 -32.901225) to (101.28037 101.28365 101.28218)
  2 by 2 by 19 MPI processor grid
  pair style eam/fs stores no restart info
  135696 atoms
  read_restart CPU = 0.074 seconds

neigh_modify	every 1 delay 0 check yes

newton		on
pair_style	eam/fs					#EAM potentials best for metallic systems
pair_coeff      * * ${pot} ${e1} ${e2} ${e1} ${e2}	#4 types to unify data files to fit with CIBD deposited cluster tracking feature with atom ID offsets
pair_coeff      * * Cu-Zr_4.eam.fs ${e1} ${e2} ${e1} ${e2}	
pair_coeff      * * Cu-Zr_4.eam.fs Cu ${e2} ${e1} ${e2}	
pair_coeff      * * Cu-Zr_4.eam.fs Cu Zr ${e1} ${e2}	
pair_coeff      * * Cu-Zr_4.eam.fs Cu Zr Cu ${e2}	
pair_coeff      * * Cu-Zr_4.eam.fs Cu Zr Cu Zr	
reset_timestep  0

info groups fixes variables regions

#-----------------------------------------------------------------FIXES FOR SUBSTRATE
fix             corint all property/atom i_int

#--------------------------------------------------------------------------------COMPUTES
compute         c1 all temp
compute_modify  c1 dynamic/dof yes extra/dof 0		#It seemed like a dynamic evaluation was better
compute		c2 all pe/atom

#--------------------------------------------------------------------------------THERMO
thermo_style    custom step pe ke press temp vol enthalpy density etotal #c_c5 c_c6 #c_c4
thermo_modify   format float "% .6e"
thermo_modify   temp c1
thermo          ${th}
thermo          5000
timestep        0.0010					#standard timestep 1fs for metallic systems

write_dump all custom dump_msr.atom id type x y z vx vy vz i_int
WARNING: Calling write_dump before a full system init. (../write_dump.cpp:81)
dump            d1 all custom ${df} data/lammpstrj.dep.msr id type x y z vx vy vz i_int #save atom trajectories/timestep for visualisation
dump            d1 all custom 10000 data/lammpstrj.dep.msr id type x y z vx vy vz i_int 

#--------------------------------------------------------------------------------BALANCE AND EQUILIBRATE
comm_style	tiled					#to allow for rcb style (weighted balancing) of balancing of atoms across processors
balance		1.0 rcb out data/tmp.balance1_msr	#rebalance atoms on processors after deleting atoms outside sphere
Balancing ...
Neighbor list info ...
  update every 1 steps, delay 0 steps, check yes
  max neighbors/atom: 2000, page size: 100000
  master list distance cutoff = 9.6
  ghost atom cutoff = 9.6
  binsize = 4.8, bins = 28 28 28
  1 neighbor lists, perpetual/occasional/extra = 1 0 0
  (1) pair eam/fs, perpetual
      attributes: half, newton on
      pair build: half/bin/atomonly/newton
      stencil: half/bin/3d/newton
      bin: standard
 rebalancing time: 0.027 seconds
  iteration count = 0
  initial/final maximal load/proc = 1813.0000 1787.0000
  initial/final imbalance factor  = 1.0154168 1.0008549

#fix		hold all npt temp ${T_cool} ${T_cool} 0.1 iso 0 0 0.1		#equilibriate cluster at T_cool temperature
#run             ${T1} #every ${t1} "write_restart data/restart.equilib_1_msr" "print 'Succeeded step $(step); target step ${tstop}' append data/success.equilib_1_msr"
#write_restart   data/restart.equilib_1_msr
#unfix		hold

#-------------------------------------------------------------------------------HEATING
variable	loopsiz equal 20
variable	dT equal (${T_heat}-${T_cool})/${loopsiz}
variable	dT equal (1000-${T_cool})/${loopsiz}
variable	dT equal (1000-50)/${loopsiz}
variable	dT equal (1000-50)/20
variable	Temp1 equal ${T_cool}
variable	Temp1 equal 50
variable	Temp2 equal ${T_cool}+${dT}
variable	Temp2 equal 50+${dT}
variable	Temp2 equal 50+47.5
variable        tstop equal $(step)+${ht}
variable        tstop equal 0+${ht}
variable        tstop equal 0+3800000

variable	hloop loop ${loopsiz}
variable	hloop loop 20
label		l3
	fix     heat all npt temp ${Temp1} ${Temp2} 0.1 iso 0 0 0.1
	fix     heat all npt temp 50 ${Temp2} 0.1 iso 0 0 0.1
	fix     heat all npt temp 50 97.5 0.1 iso 0 0 0.1
	run	${ht_inter}
	run	380000
Per MPI rank memory allocation (min/avg/max) = 5.265 | 5.267 | 5.268 Mbytes
Step PotEng KinEng Press Temp Volume Enthalpy Density TotEng 
       0 -6.747940e+05  8.765437e+02  1.711649e+01  4.997374e+01  2.415846e+06 -6.738916e+05  7.222804e+00 -6.739174e+05 
    5000 -6.747876e+05  8.889580e+02  9.306857e+01  5.068151e+01  2.415529e+06 -6.737583e+05  7.223752e+00 -6.738986e+05 
   10000 -6.747760e+05  8.971223e+02  1.625404e+02  5.114698e+01  2.415574e+06 -6.736338e+05  7.223615e+00 -6.738789e+05 
   15000 -6.747616e+05  9.077867e+02  9.068435e+01  5.175498e+01  2.415755e+06 -6.737171e+05  7.223076e+00 -6.738538e+05 
   20000 -6.747503e+05  9.193572e+02  3.419730e+01  5.241464e+01  2.415895e+06 -6.737794e+05  7.222656e+00 -6.738310e+05 
   25000 -6.747393e+05  9.303633e+02 -1.011935e+02  5.304212e+01  2.416145e+06 -6.739615e+05  7.221909e+00 -6.738089e+05 
   30000 -6.747260e+05  9.422117e+02 -4.651684e+00  5.371763e+01  2.416004e+06 -6.737909e+05  7.222330e+00 -6.737838e+05 
   35000 -6.747187e+05  9.531401e+02  1.479507e+01  5.434068e+01  2.416015e+06 -6.737433e+05  7.222297e+00 -6.737656e+05 
   40000 -6.747051e+05  9.646691e+02 -9.407573e+01  5.499797e+01  2.416331e+06 -6.738823e+05  7.221352e+00 -6.737405e+05 
   45000 -6.746949e+05  9.726160e+02  3.693244e+01  5.545104e+01  2.416062e+06 -6.736665e+05  7.222157e+00 -6.737222e+05 
   50000 -6.746847e+05  9.890553e+02  3.967648e+01  5.638829e+01  2.416034e+06 -6.736358e+05  7.222241e+00 -6.736956e+05 
   55000 -6.746729e+05  9.988380e+02 -5.326829e+01  5.694602e+01  2.416251e+06 -6.737544e+05  7.221591e+00 -6.736741e+05 
   60000 -6.746625e+05  1.010868e+03 -1.108687e+02  5.763190e+01  2.416437e+06 -6.738189e+05  7.221037e+00 -6.736517e+05 
   65000 -6.746512e+05  1.015019e+03 -2.863056e+01  5.786852e+01  2.416337e+06 -6.736794e+05  7.221335e+00 -6.736362e+05 
   70000 -6.746381e+05  1.030002e+03 -5.111972e+01  5.872275e+01  2.416426e+06 -6.736852e+05  7.221070e+00 -6.736081e+05 
   75000 -6.746308e+05  1.039181e+03 -8.566711e+01  5.924606e+01  2.416508e+06 -6.737208e+05  7.220823e+00 -6.735916e+05 
   80000 -6.746207e+05  1.054313e+03 -2.613914e+01  6.010875e+01  2.416326e+06 -6.736058e+05  7.221369e+00 -6.735664e+05 
   85000 -6.746055e+05  1.061225e+03  5.856216e+01  6.050285e+01  2.416251e+06 -6.734559e+05  7.221592e+00 -6.735442e+05 
   90000 -6.745942e+05  1.072366e+03  6.226085e+01  6.113799e+01  2.416249e+06 -6.734280e+05  7.221599e+00 -6.735219e+05 
   95000 -6.745820e+05  1.084991e+03 -2.066055e+01  6.185778e+01  2.416493e+06 -6.735282e+05  7.220868e+00 -6.734970e+05 
  100000 -6.745739e+05  1.097747e+03  8.534219e+01  6.258504e+01  2.416354e+06 -6.733474e+05  7.221284e+00 -6.734761e+05 
  105000 -6.745685e+05  1.106220e+03 -5.989500e+00  6.306814e+01  2.416485e+06 -6.734713e+05  7.220893e+00 -6.734622e+05 
  110000 -6.745479e+05  1.117532e+03 -6.955545e+01  6.371301e+01  2.416677e+06 -6.735353e+05  7.220318e+00 -6.734303e+05 
  115000 -6.745428e+05  1.128617e+03  1.092633e+02  6.434503e+01  2.416494e+06 -6.732493e+05  7.220866e+00 -6.734141e+05 
  120000 -6.745346e+05  1.143036e+03  4.841275e+00  6.516710e+01  2.416534e+06 -6.733842e+05  7.220747e+00 -6.733915e+05 
  125000 -6.745267e+05  1.147034e+03 -3.420888e+01  6.539499e+01  2.416736e+06 -6.734313e+05  7.220141e+00 -6.733797e+05 
  130000 -6.745100e+05  1.162377e+03 -6.274794e+01  6.626975e+01  2.416714e+06 -6.734423e+05  7.220209e+00 -6.733476e+05 
  135000 -6.744926e+05  1.174510e+03 -1.233475e+02  6.696148e+01  2.417030e+06 -6.735042e+05  7.219264e+00 -6.733181e+05 
  140000 -6.744842e+05  1.183411e+03 -7.768116e+01  6.746897e+01  2.416884e+06 -6.734180e+05  7.219701e+00 -6.733008e+05 
  145000 -6.744748e+05  1.196482e+03  6.859410e+00  6.821413e+01  2.416905e+06 -6.732680e+05  7.219639e+00 -6.732783e+05 
  150000 -6.744635e+05  1.206187e+03  1.233184e+01  6.876744e+01  2.416796e+06 -6.732387e+05  7.219963e+00 -6.732573e+05 
  155000 -6.744512e+05  1.214605e+03 -1.660816e+01  6.924738e+01  2.416949e+06 -6.732617e+05  7.219507e+00 -6.732366e+05 
  160000 -6.744390e+05  1.226913e+03 -6.526011e+01  6.994908e+01  2.417000e+06 -6.733106e+05  7.219354e+00 -6.732121e+05 
  165000 -6.744274e+05  1.243568e+03  1.612902e+02  7.089866e+01  2.416581e+06 -6.729406e+05  7.220606e+00 -6.731839e+05 
  170000 -6.744196e+05  1.246649e+03 -7.733945e+01  7.107430e+01  2.417076e+06 -6.732896e+05  7.219128e+00 -6.731729e+05 
  175000 -6.744060e+05  1.260072e+03  6.712877e+01  7.183954e+01  2.416926e+06 -6.730446e+05  7.219576e+00 -6.731459e+05 
  180000 -6.743999e+05  1.268744e+03  3.807440e+01  7.233396e+01  2.417055e+06 -6.730738e+05  7.219191e+00 -6.731312e+05 
  185000 -6.743862e+05  1.277901e+03 -3.625187e+01  7.285602e+01  2.417082e+06 -6.731630e+05  7.219110e+00 -6.731083e+05 
  190000 -6.743780e+05  1.285617e+03 -9.199211e+01  7.329594e+01  2.417414e+06 -6.732312e+05  7.218118e+00 -6.730924e+05 
  195000 -6.743681e+05  1.304562e+03 -3.072034e+01  7.437603e+01  2.417117e+06 -6.731099e+05  7.219004e+00 -6.730636e+05 
  200000 -6.743514e+05  1.316860e+03  1.287598e+01  7.507719e+01  2.417140e+06 -6.730151e+05  7.218935e+00 -6.730346e+05 
  205000 -6.743420e+05  1.328642e+03  4.593239e+01  7.574890e+01  2.417165e+06 -6.729441e+05  7.218861e+00 -6.730134e+05 
  210000 -6.743262e+05  1.338920e+03 -1.496942e+01  7.633484e+01  2.417255e+06 -6.730098e+05  7.218593e+00 -6.729872e+05 
  215000 -6.743204e+05  1.346927e+03 -7.911889e+01  7.679138e+01  2.417347e+06 -6.730928e+05  7.218319e+00 -6.729734e+05 
  220000 -6.743113e+05  1.363804e+03 -1.929713e+01  7.775358e+01  2.417250e+06 -6.729766e+05  7.218607e+00 -6.729475e+05 
  225000 -6.743084e+05  1.372536e+03  9.114245e+01  7.825140e+01  2.417138e+06 -6.727983e+05  7.218941e+00 -6.729358e+05 
  230000 -6.742881e+05  1.380035e+03 -6.286637e+01  7.867890e+01  2.417473e+06 -6.730030e+05  7.217942e+00 -6.729081e+05 
  235000 -6.742799e+05  1.388271e+03  1.425275e+02  7.914849e+01  2.417188e+06 -6.726766e+05  7.218793e+00 -6.728916e+05 
  240000 -6.742694e+05  1.400490e+03 -1.143353e+02  7.984508e+01  2.417627e+06 -6.730415e+05  7.217481e+00 -6.728689e+05 
  245000 -6.742538e+05  1.415437e+03  9.992361e+01  8.069729e+01  2.417329e+06 -6.726876e+05  7.218372e+00 -6.728384e+05 
  250000 -6.742482e+05  1.430505e+03 -1.206232e+02  8.155634e+01  2.417716e+06 -6.729997e+05  7.217215e+00 -6.728177e+05 
  255000 -6.742408e+05  1.433158e+03 -1.574048e+01  8.170756e+01  2.417502e+06 -6.728314e+05  7.217856e+00 -6.728077e+05 
  260000 -6.742303e+05  1.452208e+03  2.688275e+01  8.279369e+01  2.417556e+06 -6.727375e+05  7.217694e+00 -6.727781e+05 
  265000 -6.742180e+05  1.461566e+03  9.013267e+01  8.332719e+01  2.417356e+06 -6.726204e+05  7.218290e+00 -6.727564e+05 
  270000 -6.742152e+05  1.467416e+03  1.975171e+02  8.366072e+01  2.417246e+06 -6.724498e+05  7.218618e+00 -6.727478e+05 
  275000 -6.741986e+05  1.481438e+03  6.493889e+01  8.446015e+01  2.417380e+06 -6.726192e+05  7.218219e+00 -6.727172e+05 
  280000 -6.741911e+05  1.489791e+03 -1.293122e+01  8.493636e+01  2.417697e+06 -6.727208e+05  7.217273e+00 -6.727013e+05 
  285000 -6.741750e+05  1.497940e+03 -7.884478e+01  8.540094e+01  2.417929e+06 -6.727960e+05  7.216581e+00 -6.726770e+05 
  290000 -6.741693e+05  1.516231e+03 -7.923526e+00  8.644378e+01  2.417715e+06 -6.726650e+05  7.217220e+00 -6.726530e+05 
  295000 -6.741546e+05  1.519659e+03  9.542618e+01  8.663922e+01  2.417597e+06 -6.724909e+05  7.217570e+00 -6.726349e+05 
  300000 -6.741415e+05  1.533963e+03 -1.246905e+02  8.745473e+01  2.417997e+06 -6.727957e+05  7.216378e+00 -6.726075e+05 
  305000 -6.741316e+05  1.546355e+03  8.244216e+01  8.816123e+01  2.417707e+06 -6.724608e+05  7.217244e+00 -6.725852e+05 
  310000 -6.741184e+05  1.552382e+03 -3.583686e+01  8.850481e+01  2.417950e+06 -6.726201e+05  7.216518e+00 -6.725660e+05 
  315000 -6.741205e+05  1.566080e+03  1.315297e+02  8.928577e+01  2.417608e+06 -6.723560e+05  7.217537e+00 -6.725544e+05 
  320000 -6.741107e+05  1.580357e+03 -6.556369e+01  9.009975e+01  2.418084e+06 -6.726293e+05  7.216118e+00 -6.725303e+05 
  325000 -6.740962e+05  1.587783e+03 -3.307212e+01  9.052312e+01  2.418140e+06 -6.725583e+05  7.215952e+00 -6.725084e+05 
  330000 -6.740799e+05  1.601520e+03  1.740194e+02  9.130627e+01  2.417695e+06 -6.722158e+05  7.217277e+00 -6.724784e+05 
  335000 -6.740793e+05  1.605496e+03  3.511631e+01  9.153299e+01  2.417811e+06 -6.724208e+05  7.216934e+00 -6.724738e+05 
  340000 -6.740614e+05  1.625743e+03 -3.180292e+01  9.268730e+01  2.418110e+06 -6.724837e+05  7.216040e+00 -6.724357e+05 
  345000 -6.740567e+05  1.634609e+03 -2.757774e+01  9.319275e+01  2.418088e+06 -6.724637e+05  7.216104e+00 -6.724221e+05 
  350000 -6.740382e+05  1.646057e+03 -1.590615e+01  9.384545e+01  2.418085e+06 -6.724162e+05  7.216114e+00 -6.723921e+05 
  355000 -6.740269e+05  1.655666e+03  1.642510e+02  9.439328e+01  2.417965e+06 -6.721234e+05  7.216473e+00 -6.723713e+05 
  360000 -6.740167e+05  1.669220e+03  7.569669e+01  9.516601e+01  2.418121e+06 -6.722333e+05  7.216007e+00 -6.723475e+05 
  365000 -6.740019e+05  1.675117e+03 -6.139287e+01  9.550223e+01  2.418346e+06 -6.724195e+05  7.215334e+00 -6.723268e+05 
  370000 -6.739961e+05  1.690226e+03  1.476794e+00  9.636363e+01  2.418328e+06 -6.723037e+05  7.215391e+00 -6.723059e+05 
  375000 -6.739870e+05  1.697471e+03  3.832836e+01  9.677669e+01  2.418270e+06 -6.722317e+05  7.215562e+00 -6.722895e+05 
  380000 -6.739772e+05  1.716500e+03 -1.948393e+01  9.786158e+01  2.418445e+06 -6.722901e+05  7.215041e+00 -6.722607e+05 
Loop time of 4385.08 on 76 procs for 380000 steps with 135696 atoms

Performance: 7.487 ns/day, 3.205 hours/ns, 86.658 timesteps/s
96.7% CPU use with 76 MPI tasks x no OpenMP threads

MPI task timing breakdown:
Section |  min time  |  avg time  |  max time  |%varavg| %total
---------------------------------------------------------------
Pair    | 3854.5     | 4047       | 4220.9     | 134.3 | 92.29
Neigh   | 0.65028    | 0.66548    | 0.67929    |   0.8 |  0.02
Comm    | 109.06     | 281.23     | 477.3      | 508.7 |  6.41
Output  | 0.3102     | 0.31027    | 0.31154    |   0.0 |  0.01
Modify  | 35.667     | 45.287     | 73.251     | 111.1 |  1.03
Other   |            | 10.64      |            |       |  0.24

Nlocal:        1785.47 ave        1801 max        1772 min
Histogram: 2 2 11 11 18 14 10 5 2 1
Nghost:        5711.18 ave        5877 max        5574 min
Histogram: 3 15 16 6 3 4 10 9 6 4
Neighs:       183536.0 ave      189119 max      178000 min
Histogram: 2 1 7 14 12 19 9 10 1 1

Total # of neighbors = 13948758
Ave neighs/atom = 102.79417
Neighbor list builds = 160
Dangerous builds = 0
	write_restart data/restart.heat_msr
System init for write_restart ...
	unfix	heat
	fix	rest all npt temp ${Temp2} ${Temp2} 0.1 iso 0 0 0.1
	fix	rest all npt temp 97.5 ${Temp2} 0.1 iso 0 0 0.1
	fix	rest all npt temp 97.5 97.5 0.1 iso 0 0 0.1
	run     ${T1}
	run     200000
Per MPI rank memory allocation (min/avg/max) = 5.266 | 5.268 | 5.270 Mbytes
Step PotEng KinEng Press Temp Volume Enthalpy Density TotEng 
  380000 -6.739772e+05  1.716500e+03 -1.948393e+01  9.786158e+01  2.418445e+06 -6.722901e+05  7.215041e+00 -6.722607e+05 
  385000 -6.739757e+05  1.713279e+03 -1.074756e+02  9.767793e+01  2.418469e+06 -6.724247e+05  7.214967e+00 -6.722624e+05 
  390000 -6.739827e+05  1.716237e+03 -6.683399e+01  9.784657e+01  2.418578e+06 -6.723674e+05  7.214644e+00 -6.722665e+05 
  395000 -6.739742e+05  1.713875e+03 -1.963824e+01  9.771189e+01  2.418388e+06 -6.722900e+05  7.215209e+00 -6.722603e+05 
  400000 -6.739796e+05  1.718560e+03 -2.280193e+01  9.797901e+01  2.418509e+06 -6.722955e+05  7.214849e+00 -6.722610e+05 
  405000 -6.739807e+05  1.707944e+03  1.307633e+01  9.737377e+01  2.418315e+06 -6.722530e+05  7.215428e+00 -6.722728e+05 
  410000 -6.739753e+05  1.711949e+03  1.226456e+02  9.760211e+01  2.418070e+06 -6.720782e+05  7.216160e+00 -6.722633e+05 
  415000 -6.739746e+05  1.711928e+03  9.601191e+01  9.760091e+01  2.418230e+06 -6.721177e+05  7.215682e+00 -6.722626e+05 
  420000 -6.739804e+05  1.712670e+03  1.638296e+02  9.764320e+01  2.417972e+06 -6.720205e+05  7.216452e+00 -6.722678e+05 
  425000 -6.739839e+05  1.708966e+03  1.587817e+02  9.743204e+01  2.418090e+06 -6.720353e+05  7.216099e+00 -6.722749e+05 
  430000 -6.739823e+05  1.713943e+03  1.048637e+02  9.771576e+01  2.418091e+06 -6.721101e+05  7.216097e+00 -6.722684e+05 
  435000 -6.739812e+05  1.711837e+03  5.586373e+00  9.759573e+01  2.418465e+06 -6.722609e+05  7.214979e+00 -6.722693e+05 
  440000 -6.739812e+05  1.713917e+03 -2.891544e+01  9.771428e+01  2.418375e+06 -6.723109e+05  7.215249e+00 -6.722673e+05 
  445000 -6.739811e+05  1.712954e+03 -1.065091e+02  9.765938e+01  2.418619e+06 -6.724289e+05  7.214521e+00 -6.722681e+05 
  450000 -6.739810e+05  1.704098e+03 -8.220494e+01  9.715449e+01  2.418563e+06 -6.724010e+05  7.214687e+00 -6.722769e+05 
  455000 -6.739777e+05  1.707733e+03 -1.911382e+01  9.736175e+01  2.418433e+06 -6.722988e+05  7.215077e+00 -6.722699e+05 
  460000 -6.739835e+05  1.710954e+03 -9.760659e+00  9.754536e+01  2.418354e+06 -6.722873e+05  7.215313e+00 -6.722725e+05 
  465000 -6.739805e+05  1.718568e+03  6.330076e+01  9.797946e+01  2.418335e+06 -6.721664e+05  7.215370e+00 -6.722620e+05 
  470000 -6.739861e+05  1.708403e+03  1.147599e+02  9.739995e+01  2.418113e+06 -6.721045e+05  7.216032e+00 -6.722777e+05 
  475000 -6.739814e+05  1.703362e+03  1.724505e+02  9.711255e+01  2.418091e+06 -6.720178e+05  7.216097e+00 -6.722781e+05 
  480000 -6.739853e+05  1.712255e+03  6.522639e+01  9.761953e+01  2.418152e+06 -6.721746e+05  7.215914e+00 -6.722731e+05 
  485000 -6.739901e+05  1.713902e+03 -4.635784e+01  9.771346e+01  2.418416e+06 -6.723462e+05  7.215128e+00 -6.722762e+05 
  490000 -6.739822e+05  1.708469e+03 -3.952809e+01  9.740370e+01  2.418572e+06 -6.723334e+05  7.214661e+00 -6.722737e+05 
  495000 -6.739862e+05  1.709880e+03 -1.185104e+02  9.748416e+01  2.418643e+06 -6.724552e+05  7.214449e+00 -6.722763e+05 
  500000 -6.739884e+05  1.715103e+03 -3.350087e+01  9.778193e+01  2.418380e+06 -6.723238e+05  7.215234e+00 -6.722733e+05 
  505000 -6.739802e+05  1.711630e+03 -4.836381e+01  9.758393e+01  2.418476e+06 -6.723415e+05  7.214949e+00 -6.722685e+05 
  510000 -6.739822e+05  1.705429e+03  1.490753e+01  9.723038e+01  2.418441e+06 -6.722543e+05  7.215051e+00 -6.722768e+05 
  515000 -6.739886e+05  1.713236e+03  9.483956e+01  9.767549e+01  2.418114e+06 -6.721322e+05  7.216028e+00 -6.722754e+05 
  520000 -6.739886e+05  1.707564e+03  8.932576e+01  9.735212e+01  2.418192e+06 -6.721463e+05  7.215795e+00 -6.722811e+05 
  525000 -6.739909e+05  1.703432e+03  9.960563e+01  9.711653e+01  2.418116e+06 -6.721371e+05  7.216023e+00 -6.722875e+05 
  530000 -6.739869e+05  1.703790e+03  5.821523e+01  9.713692e+01  2.418381e+06 -6.721952e+05  7.215231e+00 -6.722831e+05 
  535000 -6.739850e+05  1.708138e+03 -3.737124e+01  9.738480e+01  2.418251e+06 -6.723333e+05  7.215620e+00 -6.722769e+05 
  540000 -6.739864e+05  1.712729e+03 -1.276762e+02  9.764654e+01  2.418744e+06 -6.724664e+05  7.214148e+00 -6.722737e+05 
  545000 -6.739880e+05  1.707400e+03 -1.568896e+02  9.734276e+01  2.418502e+06 -6.725175e+05  7.214871e+00 -6.722806e+05 
  550000 -6.739897e+05  1.707288e+03 -1.637941e+01  9.733633e+01  2.418432e+06 -6.723071e+05  7.215080e+00 -6.722824e+05 
  555000 -6.739858e+05  1.706534e+03  1.737809e+02  9.729336e+01  2.418178e+06 -6.720170e+05  7.215836e+00 -6.722792e+05 
  560000 -6.739883e+05  1.704724e+03  1.825022e+02  9.719019e+01  2.418002e+06 -6.720081e+05  7.216363e+00 -6.722836e+05 
  565000 -6.739943e+05  1.712841e+03  3.660494e+01  9.765297e+01  2.418232e+06 -6.722262e+05  7.215677e+00 -6.722815e+05 
  570000 -6.739862e+05  1.718041e+03  1.685769e+01  9.794942e+01  2.418292e+06 -6.722428e+05  7.215498e+00 -6.722682e+05 
  575000 -6.739898e+05  1.709786e+03 -2.173696e+01  9.747879e+01  2.418427e+06 -6.723129e+05  7.215093e+00 -6.722801e+05 
  580000 -6.739861e+05  1.707690e+03 -6.394760e+01  9.735928e+01  2.418499e+06 -6.723750e+05  7.214879e+00 -6.722784e+05 
Loop time of 2222.91 on 76 procs for 200000 steps with 135696 atoms

Performance: 7.774 ns/day, 3.087 hours/ns, 89.972 timesteps/s
96.8% CPU use with 76 MPI tasks x no OpenMP threads

MPI task timing breakdown:
Section |  min time  |  avg time  |  max time  |%varavg| %total
---------------------------------------------------------------
Pair    | 1982.3     | 2063.7     | 2150.9     |  88.9 | 92.84
Neigh   | 0.47386    | 0.48512    | 0.49557    |   0.7 |  0.02
Comm    | 46.859     | 130.77     | 215.35     | 359.5 |  5.88
Output  | 0.1579     | 0.15794    | 0.15856    |   0.0 |  0.01
Modify  | 18.372     | 22.288     | 39.984     |  68.4 |  1.00
Other   |            | 5.555      |            |       |  0.25

Nlocal:        1785.47 ave        1800 max        1774 min
Histogram: 5 8 6 16 10 14 8 1 5 3
Nghost:        5711.05 ave        5882 max        5570 min
Histogram: 6 8 17 8 3 5 11 8 6 4
Neighs:       183561.0 ave      189230 max      177930 min
Histogram: 2 1 6 14 15 15 13 8 1 1

Total # of neighbors = 13950622
Ave neighs/atom = 102.80791
Neighbor list builds = 117
Dangerous builds = 0
	unfix	rest
	print 'Loop ${hloop}; succeeded temp ${Temp2} target ${T_heat}' append data/success.heat_msr
Loop 1; succeeded temp 97.5 target 1000
	variable Temp1 equal ${Temp2}
	variable Temp1 equal 97.5
	variable Temp2 equal ${Temp2}+${dT}
	variable Temp2 equal 97.5+${dT}
	variable Temp2 equal 97.5+47.5
next		hloop
jump		SELF l3
	fix     heat all npt temp ${Temp1} ${Temp2} 0.1 iso 0 0 0.1
	fix     heat all npt temp 97.5 ${Temp2} 0.1 iso 0 0 0.1
	fix     heat all npt temp 97.5 145 0.1 iso 0 0 0.1
	run	${ht_inter}
	run	380000
Per MPI rank memory allocation (min/avg/max) = 5.266 | 5.268 | 5.270 Mbytes
Step PotEng KinEng Press Temp Volume Enthalpy Density TotEng 
  580000 -6.739861e+05  1.707690e+03 -6.394760e+01  9.735928e+01  2.418499e+06 -6.723750e+05  7.214879e+00 -6.722784e+05 
  585000 -6.739838e+05  1.720762e+03 -5.492853e+01  9.810457e+01  2.418480e+06 -6.723460e+05  7.214935e+00 -6.722631e+05 
  590000 -6.739606e+05  1.729643e+03  5.316591e+01  9.861087e+01  2.418277e+06 -6.721507e+05  7.215540e+00 -6.722310e+05 
  595000 -6.739581e+05  1.731210e+03  5.757501e+01  9.870020e+01  2.418210e+06 -6.721400e+05  7.215743e+00 -6.722269e+05 
  600000 -6.739481e+05  1.759055e+03 -7.619522e+01  1.002877e+02  2.418518e+06 -6.723041e+05  7.214821e+00 -6.721890e+05 
  605000 -6.739297e+05  1.764855e+03 -1.651098e+01  1.006184e+02  2.418614e+06 -6.721898e+05  7.214538e+00 -6.721649e+05 
  610000 -6.739228e+05  1.771812e+03  2.890019e+00  1.010150e+02  2.418595e+06 -6.721467e+05  7.214594e+00 -6.721510e+05 
  615000 -6.739107e+05  1.787181e+03 -6.169297e+01  1.018913e+02  2.418696e+06 -6.722167e+05  7.214293e+00 -6.721235e+05 
  620000 -6.739031e+05  1.796371e+03  5.849727e+01  1.024152e+02  2.418473e+06 -6.720184e+05  7.214957e+00 -6.721067e+05 
  625000 -6.738934e+05  1.807304e+03 -3.423204e+01  1.030385e+02  2.418681e+06 -6.721378e+05  7.214336e+00 -6.720861e+05 
  630000 -6.738760e+05  1.813574e+03  7.325442e+01  1.033959e+02  2.418658e+06 -6.719518e+05  7.214405e+00 -6.720624e+05 
  635000 -6.738640e+05  1.828210e+03 -4.719681e+01  1.042304e+02  2.418720e+06 -6.721071e+05  7.214219e+00 -6.720358e+05 
  640000 -6.738503e+05  1.838387e+03 -4.196042e+01  1.048106e+02  2.418874e+06 -6.720752e+05  7.213762e+00 -6.720119e+05 
  645000 -6.738511e+05  1.854936e+03  1.514953e+02  1.057541e+02  2.418455e+06 -6.717675e+05  7.215011e+00 -6.719962e+05 
  650000 -6.738313e+05  1.864289e+03 -9.211432e+00  1.062873e+02  2.418749e+06 -6.719810e+05  7.214134e+00 -6.719671e+05 
  655000 -6.738198e+05  1.877006e+03 -1.851615e+02  1.070124e+02  2.419228e+06 -6.722224e+05  7.212706e+00 -6.719428e+05 
  660000 -6.738157e+05  1.883321e+03 -7.261808e+01  1.073724e+02  2.419060e+06 -6.720420e+05  7.213206e+00 -6.719324e+05 
  665000 -6.738007e+05  1.897667e+03 -1.113846e+00  1.081903e+02  2.419098e+06 -6.719047e+05  7.213094e+00 -6.719030e+05 
  670000 -6.737962e+05  1.896665e+03  3.347140e+01  1.081332e+02  2.418864e+06 -6.718490e+05  7.213791e+00 -6.718996e+05 
  675000 -6.737797e+05  1.918932e+03  1.657485e+02  1.094027e+02  2.418707e+06 -6.716105e+05  7.214258e+00 -6.718608e+05 
  680000 -6.737683e+05  1.929448e+03  4.531295e+01  1.100022e+02  2.418837e+06 -6.717705e+05  7.213870e+00 -6.718389e+05 
  685000 -6.737643e+05  1.939161e+03 -1.959838e+01  1.105560e+02  2.419095e+06 -6.718547e+05  7.213100e+00 -6.718251e+05 
  690000 -6.737368e+05  1.950401e+03 -3.269733e+01  1.111968e+02  2.419387e+06 -6.718358e+05  7.212230e+00 -6.717864e+05 
  695000 -6.737379e+05  1.967261e+03 -3.471583e+01  1.121580e+02  2.419215e+06 -6.718230e+05  7.212745e+00 -6.717706e+05 
  700000 -6.737186e+05  1.975075e+03 -1.273705e-02  1.126035e+02  2.419205e+06 -6.717435e+05  7.212774e+00 -6.717435e+05 
  705000 -6.737154e+05  1.979442e+03  6.972119e+01  1.128525e+02  2.419014e+06 -6.716307e+05  7.213343e+00 -6.717360e+05 
  710000 -6.737014e+05  1.996549e+03 -1.039623e+01  1.138278e+02  2.419349e+06 -6.717205e+05  7.212343e+00 -6.717048e+05 
  715000 -6.736868e+05  2.010228e+03 -1.108185e+02  1.146076e+02  2.419515e+06 -6.718439e+05  7.211850e+00 -6.716766e+05 
  720000 -6.736858e+05  2.012394e+03  9.903272e+01  1.147311e+02  2.419189e+06 -6.715239e+05  7.212823e+00 -6.716734e+05 
  725000 -6.736674e+05  2.029316e+03 -1.460096e+02  1.156959e+02  2.419577e+06 -6.718586e+05  7.211665e+00 -6.716381e+05 
  730000 -6.736630e+05  2.036613e+03  1.597326e+02  1.161119e+02  2.419114e+06 -6.713852e+05  7.213045e+00 -6.716263e+05 
  735000 -6.736469e+05  2.048449e+03 -1.005431e+02  1.167867e+02  2.419499e+06 -6.717502e+05  7.211897e+00 -6.715984e+05 
  740000 -6.736359e+05  2.058466e+03  1.069450e+02  1.173578e+02  2.419198e+06 -6.714159e+05  7.212794e+00 -6.715774e+05 
  745000 -6.736268e+05  2.063741e+03  2.727656e+01  1.176586e+02  2.419381e+06 -6.715219e+05  7.212248e+00 -6.715631e+05 
  750000 -6.736059e+05  2.081377e+03 -1.646850e+02  1.186641e+02  2.419811e+06 -6.717733e+05  7.210967e+00 -6.715245e+05 
  755000 -6.736082e+05  2.092744e+03 -2.902918e+00  1.193121e+02  2.419594e+06 -6.715199e+05  7.211614e+00 -6.715155e+05 
  760000 -6.735956e+05  2.100362e+03  3.414761e+02  1.197464e+02  2.418892e+06 -6.709797e+05  7.213708e+00 -6.714953e+05 
  765000 -6.735945e+05  2.121853e+03  7.251803e+01  1.209716e+02  2.419322e+06 -6.713631e+05  7.212426e+00 -6.714726e+05 
  770000 -6.735691e+05  2.125672e+03  2.724022e+00  1.211894e+02  2.419700e+06 -6.714393e+05  7.211298e+00 -6.714434e+05 
  775000 -6.735558e+05  2.137898e+03 -8.622023e+01  1.218864e+02  2.419822e+06 -6.715481e+05  7.210934e+00 -6.714179e+05 
  780000 -6.735518e+05  2.145691e+03 -3.890842e+01  1.223307e+02  2.419851e+06 -6.714649e+05  7.210849e+00 -6.714062e+05 
  785000 -6.735419e+05  2.158689e+03 -1.008762e+02  1.230718e+02  2.419906e+06 -6.715356e+05  7.210685e+00 -6.713832e+05 
  790000 -6.735229e+05  2.171483e+03 -7.678663e+01  1.238012e+02  2.419796e+06 -6.714674e+05  7.211011e+00 -6.713515e+05 
  795000 -6.735223e+05  2.186924e+03  3.584879e+01  1.246815e+02  2.419709e+06 -6.712812e+05  7.211270e+00 -6.713354e+05 
  800000 -6.735077e+05  2.188826e+03  5.574338e+01  1.247899e+02  2.419727e+06 -6.712347e+05  7.211217e+00 -6.713189e+05 
  805000 -6.734983e+05  2.206113e+03  6.943367e+01  1.257755e+02  2.419871e+06 -6.711873e+05  7.210790e+00 -6.712922e+05 
  810000 -6.734902e+05  2.214525e+03 -1.335062e+02  1.262551e+02  2.420366e+06 -6.714774e+05  7.209315e+00 -6.712757e+05 
  815000 -6.734812e+05  2.223651e+03 -9.568970e+01  1.267754e+02  2.420170e+06 -6.714021e+05  7.209898e+00 -6.712575e+05 
  820000 -6.734546e+05  2.245881e+03  9.770244e+01  1.280427e+02  2.419856e+06 -6.710612e+05  7.210833e+00 -6.712087e+05 
  825000 -6.734555e+05  2.246497e+03 -3.650931e+01  1.280779e+02  2.420206e+06 -6.712642e+05  7.209789e+00 -6.712090e+05 
  830000 -6.734429e+05  2.254805e+03 -3.695001e+01  1.285515e+02  2.420062e+06 -6.712439e+05  7.210220e+00 -6.711881e+05 
  835000 -6.734298e+05  2.264516e+03  4.518515e+01  1.291052e+02  2.420109e+06 -6.710970e+05  7.210080e+00 -6.711653e+05 
  840000 -6.734183e+05  2.281211e+03 -6.438564e+01  1.300570e+02  2.420427e+06 -6.712344e+05  7.209133e+00 -6.711371e+05 
  845000 -6.734025e+05  2.290525e+03  1.106199e+02  1.305880e+02  2.419933e+06 -6.709449e+05  7.210603e+00 -6.711120e+05 
  850000 -6.734022e+05  2.305177e+03 -9.472595e+01  1.314234e+02  2.420263e+06 -6.712401e+05  7.209621e+00 -6.710970e+05 
  855000 -6.733927e+05  2.325329e+03  4.375331e+01  1.325723e+02  2.420018e+06 -6.710013e+05  7.210352e+00 -6.710674e+05 
  860000 -6.733808e+05  2.329897e+03  5.163284e+01  1.328327e+02  2.420116e+06 -6.709729e+05  7.210058e+00 -6.710509e+05 
  865000 -6.733701e+05  2.327018e+03 -1.476554e+02  1.326686e+02  2.420697e+06 -6.712661e+05  7.208330e+00 -6.710431e+05 
  870000 -6.733615e+05  2.345149e+03  2.063819e+01  1.337023e+02  2.420335e+06 -6.709852e+05  7.209407e+00 -6.710164e+05 
  875000 -6.733531e+05  2.360366e+03  9.335126e+01  1.345698e+02  2.420197e+06 -6.708517e+05  7.209818e+00 -6.709928e+05 
  880000 -6.733395e+05  2.368404e+03  2.065976e+01  1.350281e+02  2.420366e+06 -6.709399e+05  7.209313e+00 -6.709711e+05 
  885000 -6.733308e+05  2.379267e+03 -7.070709e+00  1.356474e+02  2.420553e+06 -6.709623e+05  7.208758e+00 -6.709516e+05 
  890000 -6.733251e+05  2.385076e+03 -1.788718e+02  1.359786e+02  2.420924e+06 -6.712103e+05  7.207652e+00 -6.709400e+05 
  895000 -6.733050e+05  2.407987e+03 -2.192747e+02  1.372848e+02  2.420981e+06 -6.712283e+05  7.207483e+00 -6.708970e+05 
  900000 -6.732951e+05  2.414451e+03 -1.399592e+02  1.376533e+02  2.420854e+06 -6.710921e+05  7.207861e+00 -6.708806e+05 
  905000 -6.732853e+05  2.422655e+03 -1.145548e+02  1.381211e+02  2.420857e+06 -6.710357e+05  7.207850e+00 -6.708626e+05 
  910000 -6.732824e+05  2.432049e+03 -6.430823e+01  1.386566e+02  2.420649e+06 -6.709475e+05  7.208471e+00 -6.708503e+05 
  915000 -6.732698e+05  2.445178e+03 -3.759240e+01  1.394051e+02  2.420771e+06 -6.708814e+05  7.208109e+00 -6.708246e+05 
  920000 -6.732581e+05  2.458128e+03 -6.041675e+00  1.401435e+02  2.420618e+06 -6.708091e+05  7.208565e+00 -6.707999e+05 
  925000 -6.732573e+05  2.470535e+03  6.922838e+01  1.408508e+02  2.420662e+06 -6.706822e+05  7.208433e+00 -6.707868e+05 
  930000 -6.732304e+05  2.474077e+03  7.798748e+01  1.410527e+02  2.420636e+06 -6.706385e+05  7.208510e+00 -6.707563e+05 
  935000 -6.732296e+05  2.483322e+03 -1.171219e+02  1.415798e+02  2.421017e+06 -6.709233e+05  7.207377e+00 -6.707463e+05 
  940000 -6.732190e+05  2.497002e+03 -7.307443e+00  1.423597e+02  2.420791e+06 -6.707330e+05  7.208047e+00 -6.707220e+05 
  945000 -6.731966e+05  2.504915e+03  1.472781e+02  1.428109e+02  2.420648e+06 -6.704692e+05  7.208475e+00 -6.706917e+05 
  950000 -6.731849e+05  2.524079e+03 -1.391795e+02  1.439035e+02  2.421002e+06 -6.708712e+05  7.207420e+00 -6.706609e+05 
  955000 -6.731808e+05  2.533571e+03  5.169102e+01  1.444446e+02  2.420857e+06 -6.705692e+05  7.207852e+00 -6.706473e+05 
  960000 -6.731657e+05  2.535767e+03 -7.688245e+01  1.445699e+02  2.421162e+06 -6.707462e+05  7.206945e+00 -6.706300e+05 
Loop time of 4265.14 on 76 procs for 380000 steps with 135696 atoms

Performance: 7.698 ns/day, 3.118 hours/ns, 89.094 timesteps/s
96.5% CPU use with 76 MPI tasks x no OpenMP threads

MPI task timing breakdown:
Section |  min time  |  avg time  |  max time  |%varavg| %total
---------------------------------------------------------------
Pair    | 3743.7     | 3919.9     | 4119.2     | 145.7 | 91.91
Neigh   | 1.71       | 1.7501     | 1.7877     |   1.3 |  0.04
Comm    | 93.342     | 289.75     | 469.01     | 537.5 |  6.79
Output  | 0.29792    | 0.298      | 0.29919    |   0.0 |  0.01
Modify  | 35.004     | 42.979     | 61.6       |  74.9 |  1.01
Other   |            | 10.44      |            |       |  0.24

Nlocal:        1785.47 ave        1807 max        1770 min
Histogram: 3 1 17 10 26 11 3 3 0 2
Nghost:        5707.92 ave        5879 max        5582 min
Histogram: 8 16 12 5 1 7 11 6 5 5
Neighs:       183391.0 ave      187762 max      177657 min
Histogram: 2 0 5 7 13 15 13 15 4 2

Total # of neighbors = 13937746
Ave neighs/atom = 102.71302
Neighbor list builds = 422
Dangerous builds = 0
	write_restart data/restart.heat_msr
System init for write_restart ...
	unfix	heat
	fix	rest all npt temp ${Temp2} ${Temp2} 0.1 iso 0 0 0.1
	fix	rest all npt temp 145 ${Temp2} 0.1 iso 0 0 0.1
	fix	rest all npt temp 145 145 0.1 iso 0 0 0.1
	run     ${T1}
	run     200000
Per MPI rank memory allocation (min/avg/max) = 5.267 | 5.269 | 5.270 Mbytes
Step PotEng KinEng Press Temp Volume Enthalpy Density TotEng 
  960000 -6.731657e+05  2.535767e+03 -7.688245e+01  1.445699e+02  2.421162e+06 -6.707462e+05  7.206945e+00 -6.706300e+05 
  965000 -6.731660e+05  2.536021e+03 -2.678922e+02  1.445843e+02  2.421621e+06 -6.710349e+05  7.205579e+00 -6.706300e+05 
  970000 -6.731742e+05  2.541224e+03 -1.061808e+02  1.448809e+02  2.421080e+06 -6.707934e+05  7.207188e+00 -6.706329e+05 
  975000 -6.731746e+05  2.550023e+03 -2.540040e+02  1.453826e+02  2.421462e+06 -6.710085e+05  7.206051e+00 -6.706246e+05 
  980000 -6.731711e+05  2.538957e+03 -1.498283e+01  1.447517e+02  2.420993e+06 -6.706548e+05  7.207447e+00 -6.706321e+05 
  985000 -6.731672e+05  2.544557e+03 -2.598909e+01  1.450710e+02  2.421159e+06 -6.706619e+05  7.206952e+00 -6.706226e+05 
  990000 -6.731680e+05  2.536214e+03  1.882899e+01  1.445953e+02  2.420981e+06 -6.706033e+05  7.207484e+00 -6.706318e+05 
  995000 -6.731593e+05  2.539692e+03  1.030816e+02  1.447936e+02  2.420888e+06 -6.704638e+05  7.207759e+00 -6.706196e+05 
 1000000 -6.731850e+05  2.542953e+03  7.790831e+01  1.449795e+02  2.420745e+06 -6.705243e+05  7.208184e+00 -6.706420e+05 
 1005000 -6.731696e+05  2.541237e+03  2.257315e+02  1.448817e+02  2.420494e+06 -6.702874e+05  7.208933e+00 -6.706284e+05 
 1010000 -6.731664e+05  2.551576e+03  1.396791e+02  1.454711e+02  2.420690e+06 -6.704038e+05  7.208348e+00 -6.706148e+05 
 1015000 -6.731775e+05  2.539416e+03  1.197151e+02  1.447779e+02  2.420766e+06 -6.704572e+05  7.208123e+00 -6.706381e+05 
 1020000 -6.731822e+05  2.538387e+03  1.778886e+01  1.447192e+02  2.420942e+06 -6.706169e+05  7.207599e+00 -6.706438e+05 
 1025000 -6.731775e+05  2.541858e+03 -5.600714e+01  1.449171e+02  2.421006e+06 -6.707202e+05  7.207409e+00 -6.706356e+05 
 1030000 -6.731801e+05  2.541741e+03 -1.088226e+02  1.449104e+02  2.421293e+06 -6.708028e+05  7.206553e+00 -6.706384e+05 
 1035000 -6.731723e+05  2.552721e+03 -1.225673e+02  1.455364e+02  2.421087e+06 -6.708048e+05  7.207167e+00 -6.706196e+05 
 1040000 -6.731821e+05  2.530626e+03 -9.534914e+01  1.442767e+02  2.421119e+06 -6.707955e+05  7.207073e+00 -6.706514e+05 
 1045000 -6.731756e+05  2.538225e+03 -3.195752e+01  1.447099e+02  2.421115e+06 -6.706856e+05  7.207082e+00 -6.706373e+05 
 1050000 -6.731812e+05  2.543803e+03 -4.004063e+00  1.450280e+02  2.420894e+06 -6.706435e+05  7.207741e+00 -6.706374e+05 
 1055000 -6.731828e+05  2.542321e+03  2.871101e+01  1.449435e+02  2.420870e+06 -6.705971e+05  7.207813e+00 -6.706405e+05 
 1060000 -6.731751e+05  2.543419e+03  1.144658e+02  1.450061e+02  2.420776e+06 -6.704587e+05  7.208093e+00 -6.706317e+05 
 1065000 -6.731865e+05  2.537044e+03  1.446339e+02  1.446426e+02  2.420630e+06 -6.704309e+05  7.208529e+00 -6.706494e+05 
 1070000 -6.731793e+05  2.543429e+03  1.561102e+02  1.450067e+02  2.420514e+06 -6.704000e+05  7.208875e+00 -6.706359e+05 
 1075000 -6.731791e+05  2.540509e+03  5.784312e+01  1.448402e+02  2.420818e+06 -6.705512e+05  7.207967e+00 -6.706386e+05 
 1080000 -6.731803e+05  2.549480e+03 -3.206642e+00  1.453516e+02  2.420769e+06 -6.706356e+05  7.208113e+00 -6.706308e+05 
 1085000 -6.731953e+05  2.539141e+03 -1.102498e+02  1.447622e+02  2.421222e+06 -6.708227e+05  7.206765e+00 -6.706561e+05 
 1090000 -6.731719e+05  2.538685e+03 -1.759901e+02  1.447362e+02  2.421345e+06 -6.708992e+05  7.206400e+00 -6.706333e+05 
 1095000 -6.731918e+05  2.530763e+03 -2.116339e+02  1.442845e+02  2.421256e+06 -6.709808e+05  7.206664e+00 -6.706610e+05 
 1100000 -6.731831e+05  2.545914e+03 -1.736969e+02  1.451483e+02  2.421166e+06 -6.708996e+05  7.206932e+00 -6.706372e+05 
 1105000 -6.731889e+05  2.547932e+03 -3.125736e+01  1.452634e+02  2.421096e+06 -6.706882e+05  7.207140e+00 -6.706410e+05 
 1110000 -6.731781e+05  2.541994e+03 -4.474910e+01  1.449248e+02  2.421118e+06 -6.707038e+05  7.207073e+00 -6.706361e+05 
 1115000 -6.731878e+05  2.550186e+03  3.609527e+01  1.453919e+02  2.420754e+06 -6.705831e+05  7.208159e+00 -6.706377e+05 
 1120000 -6.731740e+05  2.541603e+03  1.061811e+02  1.449026e+02  2.420755e+06 -6.704720e+05  7.208157e+00 -6.706324e+05 
 1125000 -6.731877e+05  2.552128e+03  9.606730e+01  1.455026e+02  2.420657e+06 -6.704904e+05  7.208448e+00 -6.706356e+05 
 1130000 -6.731998e+05  2.542193e+03  1.375141e+02  1.449362e+02  2.420797e+06 -6.704498e+05  7.208030e+00 -6.706576e+05 
 1135000 -6.731930e+05  2.541837e+03  5.967410e+01  1.449159e+02  2.420789e+06 -6.705610e+05  7.208054e+00 -6.706512e+05 
 1140000 -6.731921e+05  2.540896e+03  1.757967e+01  1.448623e+02  2.420805e+06 -6.706246e+05  7.208006e+00 -6.706512e+05 
 1145000 -6.731887e+05  2.539929e+03 -1.310319e+01  1.448071e+02  2.421118e+06 -6.706685e+05  7.207074e+00 -6.706487e+05 
 1150000 -6.731984e+05  2.539064e+03 -1.075232e+02  1.447578e+02  2.421162e+06 -6.708218e+05  7.206943e+00 -6.706593e+05 
 1155000 -6.731921e+05  2.548258e+03 -2.213770e+02  1.452820e+02  2.421330e+06 -6.709784e+05  7.206445e+00 -6.706439e+05 
 1160000 -6.731969e+05  2.542665e+03 -1.559142e+02  1.449631e+02  2.421186e+06 -6.708899e+05  7.206872e+00 -6.706542e+05 
Loop time of 2264.31 on 76 procs for 200000 steps with 135696 atoms

Performance: 7.631 ns/day, 3.145 hours/ns, 88.327 timesteps/s
96.2% CPU use with 76 MPI tasks x no OpenMP threads

MPI task timing breakdown:
Section |  min time  |  avg time  |  max time  |%varavg| %total
---------------------------------------------------------------
Pair    | 1954.5     | 2057.4     | 2196.3     | 113.2 | 90.86
Neigh   | 1.2849     | 1.3152     | 1.3414     |   1.1 |  0.06
Comm    | 41.282     | 171.25     | 270.61     | 394.1 |  7.56
Output  | 0.15435    | 0.15439    | 0.155      |   0.0 |  0.01
Modify  | 18.985     | 28.639     | 47.244     | 209.2 |  1.26
Other   |            | 5.578      |            |       |  0.25

Nlocal:        1785.47 ave        1797 max        1765 min
Histogram: 1 1 3 6 3 18 14 14 8 8
Nghost:        5709.17 ave        5877 max        5576 min
Histogram: 6 12 16 6 1 8 10 7 6 4
Neighs:       183352.0 ave      187570 max      177689 min
Histogram: 1 1 5 8 13 13 16 12 4 3

Total # of neighbors = 13934790
Ave neighs/atom = 102.69124
Neighbor list builds = 317
Dangerous builds = 0
	unfix	rest
	print 'Loop ${hloop}; succeeded temp ${Temp2} target ${T_heat}' append data/success.heat_msr
Loop 2; succeeded temp 145 target 1000
	variable Temp1 equal ${Temp2}
	variable Temp1 equal 145
	variable Temp2 equal ${Temp2}+${dT}
	variable Temp2 equal 145+${dT}
	variable Temp2 equal 145+47.5
next		hloop
jump		SELF l3
	fix     heat all npt temp ${Temp1} ${Temp2} 0.1 iso 0 0 0.1
	fix     heat all npt temp 145 ${Temp2} 0.1 iso 0 0 0.1
	fix     heat all npt temp 145 192.5 0.1 iso 0 0 0.1
	run	${ht_inter}
	run	380000
Per MPI rank memory allocation (min/avg/max) = 5.267 | 5.269 | 5.270 Mbytes
Step PotEng KinEng Press Temp Volume Enthalpy Density TotEng 
 1160000 -6.731969e+05  2.542665e+03 -1.559142e+02  1.449631e+02  2.421186e+06 -6.708899e+05  7.206872e+00 -6.706542e+05 
 1165000 -6.731768e+05  2.549274e+03 -4.242574e+01  1.453399e+02  2.420991e+06 -6.706916e+05  7.207452e+00 -6.706275e+05 
 1170000 -6.731665e+05  2.568180e+03 -9.196860e+01  1.464178e+02  2.421200e+06 -6.707373e+05  7.206831e+00 -6.705983e+05 
 1175000 -6.731604e+05  2.576221e+03 -8.186102e+01  1.468762e+02  2.421136e+06 -6.707079e+05  7.207021e+00 -6.705842e+05 
 1180000 -6.731435e+05  2.590601e+03 -9.140999e+01  1.476960e+02  2.421288e+06 -6.706910e+05  7.206569e+00 -6.705529e+05 
 1185000 -6.731441e+05  2.607088e+03 -3.347522e+01  1.486360e+02  2.421066e+06 -6.705876e+05  7.207231e+00 -6.705370e+05 
 1190000 -6.731158e+05  2.601758e+03 -1.024823e+02  1.483321e+02  2.421392e+06 -6.706689e+05  7.206260e+00 -6.705141e+05 
 1195000 -6.731092e+05  2.620900e+03 -5.603097e+01  1.494235e+02  2.421337e+06 -6.705730e+05  7.206422e+00 -6.704883e+05 
 1200000 -6.730964e+05  2.625530e+03 -6.388551e+01  1.496874e+02  2.421418e+06 -6.705675e+05  7.206182e+00 -6.704709e+05 
 1205000 -6.730956e+05  2.635471e+03  7.122689e+01  1.502542e+02  2.421123e+06 -6.703525e+05  7.207061e+00 -6.704602e+05 
 1210000 -6.730737e+05  2.647829e+03  2.171399e+02  1.509587e+02  2.421045e+06 -6.700977e+05  7.207292e+00 -6.704259e+05 
 1215000 -6.730726e+05  2.664349e+03 -5.085692e+01  1.519006e+02  2.421456e+06 -6.704851e+05  7.206069e+00 -6.704082e+05 
 1220000 -6.730546e+05  2.681263e+03 -1.021713e+02  1.528649e+02  2.421606e+06 -6.705277e+05  7.205622e+00 -6.703733e+05 
 1225000 -6.730356e+05  2.689502e+03  3.934407e+01  1.533346e+02  2.421540e+06 -6.702867e+05  7.205819e+00 -6.703461e+05 
 1230000 -6.730259e+05  2.693428e+03  2.143603e+00  1.535585e+02  2.421620e+06 -6.703293e+05  7.205581e+00 -6.703325e+05 
 1235000 -6.730157e+05  2.704087e+03 -1.258191e+02  1.541661e+02  2.421702e+06 -6.705018e+05  7.205336e+00 -6.703116e+05 
 1240000 -6.730192e+05  2.708275e+03  2.618472e+02  1.544049e+02  2.420749e+06 -6.699153e+05  7.208173e+00 -6.703109e+05 
 1245000 -6.730029e+05  2.727338e+03 -6.870403e+01  1.554917e+02  2.421711e+06 -6.703794e+05  7.205309e+00 -6.702756e+05 
 1250000 -6.729861e+05  2.739027e+03  5.112815e+01  1.561582e+02  2.421492e+06 -6.701698e+05  7.205962e+00 -6.702470e+05 
 1255000 -6.729762e+05  2.754385e+03 -1.100072e+02  1.570337e+02  2.421901e+06 -6.703881e+05  7.204744e+00 -6.702218e+05 
 1260000 -6.729664e+05  2.762272e+03  7.436494e+01  1.574834e+02  2.421432e+06 -6.700917e+05  7.206141e+00 -6.702041e+05 
 1265000 -6.729624e+05  2.768564e+03 -3.696992e+01  1.578421e+02  2.421807e+06 -6.702497e+05  7.205024e+00 -6.701938e+05 
 1270000 -6.729405e+05  2.784819e+03  1.966533e+02  1.587688e+02  2.421323e+06 -6.698585e+05  7.206464e+00 -6.701557e+05 
 1275000 -6.729315e+05  2.799782e+03 -1.541361e+02  1.596219e+02  2.421957e+06 -6.703647e+05  7.204577e+00 -6.701317e+05 
 1280000 -6.729257e+05  2.815946e+03  2.383007e+01  1.605435e+02  2.421752e+06 -6.700737e+05  7.205188e+00 -6.701097e+05 
 1285000 -6.729175e+05  2.817472e+03  1.032698e+02  1.606305e+02  2.421777e+06 -6.699439e+05  7.205114e+00 -6.701000e+05 
 1290000 -6.728997e+05  2.831332e+03 -2.536680e+02  1.614206e+02  2.422558e+06 -6.704519e+05  7.202791e+00 -6.700683e+05 
 1295000 -6.728805e+05  2.842615e+03 -3.026294e+01  1.620639e+02  2.421960e+06 -6.700837e+05  7.204571e+00 -6.700379e+05 
 1300000 -6.728817e+05  2.846510e+03  1.243645e+02  1.622860e+02  2.421728e+06 -6.698472e+05  7.205259e+00 -6.700352e+05 
 1305000 -6.728722e+05  2.863722e+03  4.590338e+00  1.632673e+02  2.421989e+06 -6.700016e+05  7.204482e+00 -6.700085e+05 
 1310000 -6.728649e+05  2.872132e+03 -4.142226e+01  1.637468e+02  2.421942e+06 -6.700554e+05  7.204621e+00 -6.699928e+05 
 1315000 -6.728522e+05  2.881039e+03 -8.784866e+01  1.642546e+02  2.422356e+06 -6.701040e+05  7.203391e+00 -6.699712e+05 
 1320000 -6.728345e+05  2.894242e+03 -1.029007e+02  1.650073e+02  2.422268e+06 -6.700959e+05  7.203653e+00 -6.699403e+05 
 1325000 -6.728324e+05  2.905678e+03 -4.718760e+01  1.656593e+02  2.422254e+06 -6.699981e+05  7.203694e+00 -6.699267e+05 
 1330000 -6.728090e+05  2.913561e+03 -3.229802e+02  1.661087e+02  2.422663e+06 -6.703838e+05  7.202480e+00 -6.698954e+05 
 1335000 -6.728027e+05  2.928696e+03 -2.119189e+01  1.669716e+02  2.422161e+06 -6.699061e+05  7.203972e+00 -6.698740e+05 
 1340000 -6.727939e+05  2.938235e+03 -7.215658e+01  1.675154e+02  2.422328e+06 -6.699647e+05  7.203475e+00 -6.698556e+05 
 1345000 -6.727815e+05  2.947357e+03 -1.228771e+02  1.680355e+02  2.422535e+06 -6.700199e+05  7.202861e+00 -6.698341e+05 
 1350000 -6.727747e+05  2.960157e+03 -9.742739e+00  1.687652e+02  2.422072e+06 -6.698293e+05  7.204235e+00 -6.698145e+05 
 1355000 -6.727683e+05  2.980777e+03  9.275446e+01  1.699408e+02  2.422302e+06 -6.696473e+05  7.203551e+00 -6.697875e+05 
 1360000 -6.727491e+05  2.989013e+03  2.421423e+02  1.704104e+02  2.421960e+06 -6.693941e+05  7.204569e+00 -6.697601e+05 
 1365000 -6.727359e+05  2.988935e+03  1.200256e+01  1.704059e+02  2.422436e+06 -6.697288e+05  7.203154e+00 -6.697469e+05 
 1370000 -6.727317e+05  2.997309e+03 -7.628910e+01  1.708834e+02  2.422502e+06 -6.698497e+05  7.202958e+00 -6.697344e+05 
 1375000 -6.727201e+05  3.014644e+03 -1.035983e+02  1.718717e+02  2.422630e+06 -6.698621e+05  7.202576e+00 -6.697055e+05 
 1380000 -6.727190e+05  3.017633e+03  6.237873e+01  1.720421e+02  2.422387e+06 -6.696071e+05  7.203299e+00 -6.697014e+05 
 1385000 -6.726892e+05  3.030053e+03 -6.845305e+00  1.727502e+02  2.422534e+06 -6.696695e+05  7.202864e+00 -6.696592e+05 
 1390000 -6.726906e+05  3.041536e+03 -9.488420e+01  1.734049e+02  2.422657e+06 -6.697926e+05  7.202495e+00 -6.696491e+05 
 1395000 -6.726873e+05  3.059660e+03  7.541327e+01  1.744382e+02  2.422599e+06 -6.695136e+05  7.202668e+00 -6.696276e+05 
 1400000 -6.726682e+05  3.077034e+03 -4.585065e+01  1.754287e+02  2.422854e+06 -6.696605e+05  7.201910e+00 -6.695911e+05 
 1405000 -6.726549e+05  3.090171e+03 -2.847718e+01  1.761777e+02  2.422695e+06 -6.696077e+05  7.202383e+00 -6.695647e+05 
 1410000 -6.726469e+05  3.084829e+03  6.328639e+01  1.758731e+02  2.422709e+06 -6.694664e+05  7.202342e+00 -6.695621e+05 
 1415000 -6.726375e+05  3.105805e+03 -1.873994e+02  1.770690e+02  2.423063e+06 -6.698151e+05  7.201290e+00 -6.695316e+05 
 1420000 -6.726184e+05  3.109854e+03  1.162391e+02  1.772998e+02  2.422711e+06 -6.693328e+05  7.202335e+00 -6.695085e+05 
 1425000 -6.726136e+05  3.121916e+03 -1.470176e+02  1.779875e+02  2.423145e+06 -6.697141e+05  7.201045e+00 -6.694917e+05 
 1430000 -6.725852e+05  3.138506e+03  3.966028e+01  1.789334e+02  2.422998e+06 -6.693867e+05  7.201483e+00 -6.694467e+05 
 1435000 -6.725880e+05  3.152223e+03 -2.278386e+01  1.797154e+02  2.423019e+06 -6.694702e+05  7.201420e+00 -6.694357e+05 
 1440000 -6.725793e+05  3.150171e+03 -3.655401e+01  1.795984e+02  2.423029e+06 -6.694844e+05  7.201390e+00 -6.694291e+05 
 1445000 -6.725619e+05  3.174984e+03  2.097283e+02  1.810130e+02  2.422462e+06 -6.690698e+05  7.203077e+00 -6.693869e+05 
 1450000 -6.725589e+05  3.186230e+03 -9.063784e+01  1.816542e+02  2.423166e+06 -6.695098e+05  7.200983e+00 -6.693727e+05 
 1455000 -6.725422e+05  3.174572e+03 -7.274934e+01  1.809895e+02  2.423127e+06 -6.694776e+05  7.201099e+00 -6.693676e+05 
 1460000 -6.725347e+05  3.197517e+03  1.765096e+02  1.822977e+02  2.422780e+06 -6.690703e+05  7.202130e+00 -6.693372e+05 
 1465000 -6.725229e+05  3.211444e+03  7.595143e+01  1.830917e+02  2.422859e+06 -6.691966e+05  7.201897e+00 -6.693114e+05 
 1470000 -6.725197e+05  3.221663e+03 -1.551932e+02  1.836743e+02  2.423484e+06 -6.695328e+05  7.200038e+00 -6.692981e+05 
 1475000 -6.724903e+05  3.228115e+03 -2.873975e+02  1.840422e+02  2.423810e+06 -6.696969e+05  7.199069e+00 -6.692621e+05 
 1480000 -6.724965e+05  3.248388e+03 -2.083044e+01  1.851980e+02  2.423354e+06 -6.692796e+05  7.200425e+00 -6.692481e+05 
 1485000 -6.724709e+05  3.240134e+03  3.092173e+01  1.847274e+02  2.423262e+06 -6.691840e+05  7.200699e+00 -6.692307e+05 
 1490000 -6.724620e+05  3.273760e+03  1.152529e+02  1.866445e+02  2.423143e+06 -6.690139e+05  7.201053e+00 -6.691882e+05 
 1495000 -6.724465e+05  3.267102e+03  1.420785e+02  1.862649e+02  2.423004e+06 -6.689646e+05  7.201464e+00 -6.691794e+05 
 1500000 -6.724460e+05  3.300792e+03  8.479067e+01  1.881856e+02  2.423125e+06 -6.690170e+05  7.201106e+00 -6.691452e+05 
 1505000 -6.724364e+05  3.304011e+03  1.454712e+01  1.883691e+02  2.423476e+06 -6.691104e+05  7.200063e+00 -6.691324e+05 
 1510000 -6.724088e+05  3.307491e+03  1.688113e+01  1.885675e+02  2.423529e+06 -6.690758e+05  7.199906e+00 -6.691013e+05 
 1515000 -6.723978e+05  3.313877e+03  9.410314e+01  1.889317e+02  2.423270e+06 -6.689416e+05  7.200673e+00 -6.690839e+05 
 1520000 -6.723942e+05  3.332013e+03  8.153005e+01  1.899656e+02  2.423430e+06 -6.689389e+05  7.200199e+00 -6.690622e+05 
 1525000 -6.723714e+05  3.341337e+03  1.562740e+02  1.904972e+02  2.423470e+06 -6.687937e+05  7.200080e+00 -6.690301e+05 
 1530000 -6.723690e+05  3.348626e+03  3.967996e+01  1.909128e+02  2.423653e+06 -6.689603e+05  7.199538e+00 -6.690203e+05 
 1535000 -6.723533e+05  3.361145e+03 -1.468943e+01  1.916265e+02  2.423635e+06 -6.690144e+05  7.199589e+00 -6.689922e+05 
 1540000 -6.723620e+05  3.375012e+03 -1.333530e+02  1.924171e+02  2.423888e+06 -6.691887e+05  7.198837e+00 -6.689870e+05 
Loop time of 4292.48 on 76 procs for 380000 steps with 135696 atoms

Performance: 7.649 ns/day, 3.138 hours/ns, 88.527 timesteps/s
96.4% CPU use with 76 MPI tasks x no OpenMP threads

MPI task timing breakdown:
Section |  min time  |  avg time  |  max time  |%varavg| %total
---------------------------------------------------------------
Pair    | 3708       | 3921.9     | 4146.7     | 158.8 | 91.37
Neigh   | 3.254      | 3.333      | 3.3965     |   1.7 |  0.08
Comm    | 98.176     | 312.9      | 535.1      | 568.1 |  7.29
Output  | 0.2964     | 0.29647    | 0.29769    |   0.0 |  0.01
Modify  | 32.455     | 43.362     | 52.441     |  66.0 |  1.01
Other   |            | 10.64      |            |       |  0.25

Nlocal:        1785.47 ave        1800 max        1771 min
Histogram: 2 2 9 13 9 17 11 8 2 3
Nghost:        5706.80 ave        5876 max        5567 min
Histogram: 4 15 15 6 2 5 11 8 6 4
Neighs:       183210.0 ave      188350 max      178313 min
Histogram: 2 3 9 14 10 15 11 8 1 3

Total # of neighbors = 13923930
Ave neighs/atom = 102.61120
Neighbor list builds = 803
Dangerous builds = 0
	write_restart data/restart.heat_msr
System init for write_restart ...
	unfix	heat
	fix	rest all npt temp ${Temp2} ${Temp2} 0.1 iso 0 0 0.1
	fix	rest all npt temp 192.5 ${Temp2} 0.1 iso 0 0 0.1
	fix	rest all npt temp 192.5 192.5 0.1 iso 0 0 0.1
	run     ${T1}
	run     200000
Per MPI rank memory allocation (min/avg/max) = 5.267 | 5.269 | 5.270 Mbytes
Step PotEng KinEng Press Temp Volume Enthalpy Density TotEng 
 1540000 -6.723620e+05  3.375012e+03 -1.333530e+02  1.924171e+02  2.423888e+06 -6.691887e+05  7.198837e+00 -6.689870e+05 
 1545000 -6.723507e+05  3.369716e+03 -1.093928e+02  1.921151e+02  2.424017e+06 -6.691465e+05  7.198456e+00 -6.689810e+05 
 1550000 -6.723506e+05  3.383222e+03  1.247647e+02  1.928852e+02  2.423460e+06 -6.687787e+05  7.200109e+00 -6.689674e+05 
 1555000 -6.723583e+05  3.380367e+03  1.301112e+02  1.927224e+02  2.423251e+06 -6.687812e+05  7.200730e+00 -6.689780e+05 
 1560000 -6.723504e+05  3.366929e+03 -4.302996e+01  1.919563e+02  2.423804e+06 -6.690486e+05  7.199088e+00 -6.689835e+05 
 1565000 -6.723572e+05  3.383785e+03 -1.443156e+02  1.929172e+02  2.424071e+06 -6.691918e+05  7.198295e+00 -6.689734e+05 
 1570000 -6.723479e+05  3.376166e+03 -2.143845e+02  1.924829e+02  2.424149e+06 -6.692961e+05  7.198065e+00 -6.689717e+05 
 1575000 -6.723530e+05  3.377107e+03  5.955413e+01  1.925365e+02  2.423664e+06 -6.688858e+05  7.199505e+00 -6.689759e+05 
 1580000 -6.723454e+05  3.376391e+03  1.676595e+02  1.924957e+02  2.423599e+06 -6.687154e+05  7.199697e+00 -6.689690e+05 
 1585000 -6.723511e+05  3.372625e+03  8.064153e+01  1.922810e+02  2.423425e+06 -6.688565e+05  7.200213e+00 -6.689784e+05 
 1590000 -6.723625e+05  3.372325e+03 -6.156701e+01  1.922639e+02  2.423832e+06 -6.690833e+05  7.199004e+00 -6.689902e+05 
 1595000 -6.723553e+05  3.385813e+03 -9.491207e+01  1.930329e+02  2.423982e+06 -6.691131e+05  7.198559e+00 -6.689695e+05 
 1600000 -6.723586e+05  3.374252e+03 -4.458119e+01  1.923737e+02  2.423833e+06 -6.690518e+05  7.199002e+00 -6.689844e+05 
 1605000 -6.723510e+05  3.381921e+03  8.095309e+01  1.928110e+02  2.423812e+06 -6.688466e+05  7.199066e+00 -6.689691e+05 
 1610000 -6.723592e+05  3.376666e+03  2.404086e+01  1.925114e+02  2.423596e+06 -6.689461e+05  7.199706e+00 -6.689825e+05 
 1615000 -6.723541e+05  3.373042e+03  3.963569e+01  1.923048e+02  2.423592e+06 -6.689211e+05  7.199717e+00 -6.689811e+05 
 1620000 -6.723595e+05  3.374460e+03 -1.520528e+02  1.923856e+02  2.424086e+06 -6.692151e+05  7.198251e+00 -6.689850e+05 
 1625000 -6.723503e+05  3.385257e+03 -8.805639e+01  1.930012e+02  2.423975e+06 -6.690983e+05  7.198579e+00 -6.689650e+05 
 1630000 -6.723591e+05  3.371743e+03  1.180299e+02  1.922307e+02  2.423518e+06 -6.688088e+05  7.199937e+00 -6.689873e+05 
 1635000 -6.723725e+05  3.383354e+03  1.381230e+02  1.928927e+02  2.423357e+06 -6.687803e+05  7.200417e+00 -6.689892e+05 
 1640000 -6.723563e+05  3.370461e+03 -8.668187e+00  1.921576e+02  2.423865e+06 -6.689990e+05  7.198906e+00 -6.689859e+05 
 1645000 -6.723552e+05  3.382987e+03 -8.551753e+01  1.928718e+02  2.423936e+06 -6.691016e+05  7.198697e+00 -6.689722e+05 
 1650000 -6.723641e+05  3.373594e+03 -6.617192e+01  1.923362e+02  2.423784e+06 -6.690906e+05  7.199147e+00 -6.689905e+05 
 1655000 -6.723639e+05  3.374325e+03  2.504569e+01  1.923779e+02  2.423763e+06 -6.689517e+05  7.199209e+00 -6.689896e+05 
 1660000 -6.723597e+05  3.375568e+03  2.073423e+02  1.924488e+02  2.423310e+06 -6.686705e+05  7.200557e+00 -6.689841e+05 
 1665000 -6.723583e+05  3.368253e+03  6.818367e+01  1.920318e+02  2.423542e+06 -6.688869e+05  7.199866e+00 -6.689901e+05 
 1670000 -6.723435e+05  3.373377e+03 -4.029547e+01  1.923239e+02  2.423971e+06 -6.690311e+05  7.198592e+00 -6.689702e+05 
 1675000 -6.723453e+05  3.379823e+03 -2.466254e+01  1.926914e+02  2.423727e+06 -6.690028e+05  7.199318e+00 -6.689655e+05 
 1680000 -6.723580e+05  3.377388e+03  1.574858e+02  1.925526e+02  2.423150e+06 -6.687425e+05  7.201032e+00 -6.689806e+05 
 1685000 -6.723544e+05  3.382298e+03  1.283761e+02  1.928325e+02  2.423461e+06 -6.687779e+05  7.200106e+00 -6.689721e+05 
 1690000 -6.723540e+05  3.379153e+03 -4.887741e+01  1.926532e+02  2.423742e+06 -6.690488e+05  7.199273e+00 -6.689749e+05 
 1695000 -6.723568e+05  3.388417e+03 -9.699923e+01  1.931814e+02  2.423964e+06 -6.691152e+05  7.198614e+00 -6.689684e+05 
 1700000 -6.723662e+05  3.394543e+03  1.774582e+02  1.935306e+02  2.423276e+06 -6.687032e+05  7.200657e+00 -6.689717e+05 
 1705000 -6.723643e+05  3.363835e+03  4.703605e+00  1.917799e+02  2.423490e+06 -6.689934e+05  7.200020e+00 -6.690005e+05 
 1710000 -6.723675e+05  3.379115e+03 -1.001283e+02  1.926510e+02  2.423912e+06 -6.691399e+05  7.198768e+00 -6.689884e+05 
 1715000 -6.723709e+05  3.383353e+03 -1.868963e+02  1.928926e+02  2.424010e+06 -6.692703e+05  7.198478e+00 -6.689875e+05 
 1720000 -6.723541e+05  3.370226e+03 -1.314987e+01  1.921442e+02  2.423716e+06 -6.690037e+05  7.199350e+00 -6.689838e+05 
 1725000 -6.723701e+05  3.370930e+03  1.283982e+02  1.921843e+02  2.423253e+06 -6.688050e+05  7.200725e+00 -6.689992e+05 
 1730000 -6.723616e+05  3.395989e+03  9.074835e+01  1.936130e+02  2.423610e+06 -6.688284e+05  7.199665e+00 -6.689656e+05 
 1735000 -6.723560e+05  3.386718e+03 -2.822183e+01  1.930844e+02  2.423934e+06 -6.690119e+05  7.198702e+00 -6.689693e+05 
 1740000 -6.723473e+05  3.368295e+03 -2.370015e+02  1.920341e+02  2.424508e+06 -6.693377e+05  7.196997e+00 -6.689790e+05 
Loop time of 2268.21 on 76 procs for 200000 steps with 135696 atoms

Performance: 7.618 ns/day, 3.150 hours/ns, 88.175 timesteps/s
96.2% CPU use with 76 MPI tasks x no OpenMP threads

MPI task timing breakdown:
Section |  min time  |  avg time  |  max time  |%varavg| %total
---------------------------------------------------------------
Pair    | 1958.5     | 2066       | 2191.9     | 115.7 | 91.08
Neigh   | 2.1247     | 2.1802     | 2.2261     |   1.4 |  0.10
Comm    | 50.984     | 171.83     | 283.3      | 403.5 |  7.58
Output  | 0.15532    | 0.15536    | 0.15599    |   0.0 |  0.01
Modify  | 17.24      | 22.483     | 26.479     |  41.5 |  0.99
Other   |            | 5.581      |            |       |  0.25

Nlocal:        1785.47 ave        1803 max        1767 min
Histogram: 2 5 7 7 13 15 14 4 6 3
Nghost:        5703.61 ave        5861 max        5565 min
Histogram: 5 10 15 10 0 3 13 9 5 6
Neighs:       183130.0 ave      188011 max      178945 min
Histogram: 5 3 11 12 12 10 12 5 4 2

Total # of neighbors = 13917911
Ave neighs/atom = 102.56685
Neighbor list builds = 525
Dangerous builds = 0
	unfix	rest
	print 'Loop ${hloop}; succeeded temp ${Temp2} target ${T_heat}' append data/success.heat_msr
Loop 3; succeeded temp 192.5 target 1000
	variable Temp1 equal ${Temp2}
	variable Temp1 equal 192.5
	variable Temp2 equal ${Temp2}+${dT}
	variable Temp2 equal 192.5+${dT}
	variable Temp2 equal 192.5+47.5
next		hloop
jump		SELF l3
	fix     heat all npt temp ${Temp1} ${Temp2} 0.1 iso 0 0 0.1
	fix     heat all npt temp 192.5 ${Temp2} 0.1 iso 0 0 0.1
	fix     heat all npt temp 192.5 240 0.1 iso 0 0 0.1
	run	${ht_inter}
	run	380000
Per MPI rank memory allocation (min/avg/max) = 5.267 | 5.269 | 5.270 Mbytes
Step PotEng KinEng Press Temp Volume Enthalpy Density TotEng 
 1740000 -6.723473e+05  3.368295e+03 -2.370015e+02  1.920341e+02  2.424508e+06 -6.693377e+05  7.196997e+00 -6.689790e+05 
 1745000 -6.723559e+05  3.391505e+03 -9.466981e-02  1.933574e+02  2.423752e+06 -6.689646e+05  7.199242e+00 -6.689644e+05 
 1750000 -6.723440e+05  3.396892e+03  1.585273e+02  1.936645e+02  2.423538e+06 -6.687073e+05  7.199878e+00 -6.689471e+05 
 1755000 -6.723270e+05  3.403598e+03 -3.328693e+01  1.940468e+02  2.423873e+06 -6.689738e+05  7.198884e+00 -6.689234e+05 
 1760000 -6.723231e+05  3.425317e+03 -6.947089e+01  1.952851e+02  2.424186e+06 -6.690029e+05  7.197953e+00 -6.688978e+05 
 1765000 -6.723199e+05  3.438053e+03  3.369467e+02  1.960112e+02  2.423126e+06 -6.683722e+05  7.201101e+00 -6.688818e+05 
 1770000 -6.723047e+05  3.433494e+03 -1.008013e+02  1.957513e+02  2.423992e+06 -6.690237e+05  7.198529e+00 -6.688712e+05 
 1775000 -6.722928e+05  3.456112e+03  5.010780e+01  1.970408e+02  2.423770e+06 -6.687609e+05  7.199188e+00 -6.688367e+05 
 1780000 -6.722981e+05  3.449636e+03 -3.113177e+00  1.966716e+02  2.423967e+06 -6.688531e+05  7.198603e+00 -6.688484e+05 
 1785000 -6.722677e+05  3.473505e+03 -7.693476e+01  1.980324e+02  2.424037e+06 -6.689106e+05  7.198397e+00 -6.687942e+05 
 1790000 -6.722548e+05  3.476901e+03  8.626335e+01  1.982260e+02  2.423763e+06 -6.686474e+05  7.199209e+00 -6.687779e+05 
 1795000 -6.722378e+05  3.498353e+03 -8.100977e+01  1.994491e+02  2.424145e+06 -6.688620e+05  7.198076e+00 -6.687394e+05 
 1800000 -6.722516e+05  3.511938e+03  5.758371e+01  2.002236e+02  2.423939e+06 -6.686525e+05  7.198687e+00 -6.687396e+05 
 1805000 -6.722267e+05  3.517965e+03 -8.409498e+01  2.005671e+02  2.424312e+06 -6.688360e+05  7.197581e+00 -6.687088e+05 
 1810000 -6.722352e+05  3.517123e+03  2.809319e+01  2.005192e+02  2.423875e+06 -6.686756e+05  7.198879e+00 -6.687181e+05 
 1815000 -6.722054e+05  3.535489e+03  3.275844e+01  2.015662e+02  2.424166e+06 -6.686204e+05  7.198014e+00 -6.686699e+05 
 1820000 -6.721826e+05  3.546064e+03 -1.796502e+02  2.021691e+02  2.424535e+06 -6.689084e+05  7.196917e+00 -6.686366e+05 
 1825000 -6.721873e+05  3.568446e+03  1.815211e+02  2.034452e+02  2.423954e+06 -6.683442e+05  7.198641e+00 -6.686188e+05 
 1830000 -6.721729e+05  3.570995e+03 -7.288168e+01  2.035905e+02  2.424412e+06 -6.687122e+05  7.197282e+00 -6.686019e+05 
 1835000 -6.721603e+05  3.582756e+03 -2.095434e+02  2.042611e+02  2.424794e+06 -6.688946e+05  7.196150e+00 -6.685775e+05 
 1840000 -6.721420e+05  3.603644e+03  4.553628e+01  2.054519e+02  2.424327e+06 -6.684695e+05  7.197535e+00 -6.685384e+05 
 1845000 -6.721350e+05  3.613383e+03  1.164060e+02  2.060071e+02  2.424195e+06 -6.683455e+05  7.197928e+00 -6.685216e+05 
 1850000 -6.721180e+05  3.624636e+03 -2.324379e+02  2.066487e+02  2.424864e+06 -6.688452e+05  7.195940e+00 -6.684934e+05 
 1855000 -6.721107e+05  3.637196e+03 -5.071324e+01  2.073648e+02  2.424598e+06 -6.685502e+05  7.196730e+00 -6.684735e+05 
 1860000 -6.721111e+05  3.640551e+03  5.735141e+01  2.075561e+02  2.424492e+06 -6.683838e+05  7.197046e+00 -6.684705e+05 
 1865000 -6.720855e+05  3.646959e+03  8.090014e+01  2.079214e+02  2.424333e+06 -6.683161e+05  7.197519e+00 -6.684386e+05 
 1870000 -6.720848e+05  3.655937e+03 -2.178546e+00  2.084333e+02  2.424471e+06 -6.684322e+05  7.197106e+00 -6.684289e+05 
 1875000 -6.720656e+05  3.668922e+03 -1.932775e+02  2.091736e+02  2.425221e+06 -6.686892e+05  7.194883e+00 -6.683966e+05 
 1880000 -6.720662e+05  3.677307e+03 -1.693462e+02  2.096516e+02  2.424965e+06 -6.686452e+05  7.195642e+00 -6.683889e+05 
 1885000 -6.720533e+05  3.706540e+03 -4.482445e+01  2.113182e+02  2.424610e+06 -6.684146e+05  7.196696e+00 -6.683467e+05 
 1890000 -6.720343e+05  3.703238e+03 -1.374385e+00  2.111300e+02  2.424761e+06 -6.683332e+05  7.196248e+00 -6.683311e+05 
 1895000 -6.720253e+05  3.723937e+03  8.951818e+01  2.123101e+02  2.424521e+06 -6.681659e+05  7.196958e+00 -6.683014e+05 
 1900000 -6.720023e+05  3.727015e+03  1.793670e+02  2.124856e+02  2.424412e+06 -6.680039e+05  7.197283e+00 -6.682753e+05 
 1905000 -6.719969e+05  3.729592e+03  1.480665e+02  2.126325e+02  2.424565e+06 -6.680432e+05  7.196830e+00 -6.682673e+05 
 1910000 -6.719996e+05  3.740850e+03  2.173888e+02  2.132744e+02  2.424334e+06 -6.679299e+05  7.197515e+00 -6.682588e+05 
 1915000 -6.719856e+05  3.755462e+03  4.848960e+01  2.141074e+02  2.424749e+06 -6.681568e+05  7.196284e+00 -6.682302e+05 
 1920000 -6.719673e+05  3.761758e+03  4.794251e+01  2.144664e+02  2.425025e+06 -6.681330e+05  7.195463e+00 -6.682056e+05 
 1925000 -6.719452e+05  3.778648e+03  1.461715e+02  2.154293e+02  2.424787e+06 -6.679453e+05  7.196170e+00 -6.681666e+05 
 1930000 -6.719459e+05  3.794093e+03  3.493010e+01  2.163099e+02  2.424951e+06 -6.680989e+05  7.195683e+00 -6.681518e+05 
 1935000 -6.719389e+05  3.804405e+03 -2.516276e+00  2.168977e+02  2.424778e+06 -6.681383e+05  7.196195e+00 -6.681345e+05 
 1940000 -6.719130e+05  3.807443e+03 -1.689435e+02  2.170709e+02  2.425405e+06 -6.683613e+05  7.194335e+00 -6.681056e+05 
 1945000 -6.719008e+05  3.817208e+03 -1.613026e+02  2.176277e+02  2.425661e+06 -6.683278e+05  7.193578e+00 -6.680836e+05 
 1950000 -6.718992e+05  3.822894e+03 -8.374519e+01  2.179519e+02  2.425373e+06 -6.682031e+05  7.194430e+00 -6.680763e+05 
 1955000 -6.718863e+05  3.851527e+03  2.722873e+01  2.195843e+02  2.425407e+06 -6.679935e+05  7.194331e+00 -6.680347e+05 
 1960000 -6.718838e+05  3.856934e+03  8.494297e+01  2.198926e+02  2.425134e+06 -6.678983e+05  7.195140e+00 -6.680269e+05 
 1965000 -6.718720e+05  3.874943e+03  3.396273e+01  2.209193e+02  2.425167e+06 -6.679457e+05  7.195043e+00 -6.679971e+05 
 1970000 -6.718651e+05  3.871491e+03 -1.072249e+02  2.207225e+02  2.425704e+06 -6.681559e+05  7.193449e+00 -6.679936e+05 
 1975000 -6.718645e+05  3.893444e+03  5.428498e+01  2.219741e+02  2.425379e+06 -6.678889e+05  7.194414e+00 -6.679710e+05 
 1980000 -6.718286e+05  3.911386e+03  1.308663e+02  2.229970e+02  2.425177e+06 -6.677192e+05  7.195012e+00 -6.679172e+05 
 1985000 -6.718294e+05  3.905661e+03 -8.774298e+01  2.226706e+02  2.425682e+06 -6.680566e+05  7.193513e+00 -6.679237e+05 
 1990000 -6.718114e+05  3.927870e+03  2.899300e+01  2.239368e+02  2.425002e+06 -6.678396e+05  7.195531e+00 -6.678835e+05 
 1995000 -6.718008e+05  3.921782e+03  8.388550e+01  2.235897e+02  2.425362e+06 -6.677521e+05  7.194462e+00 -6.678790e+05 
 2000000 -6.717904e+05  3.948337e+03 -2.173275e+02  2.251037e+02  2.425928e+06 -6.681712e+05  7.192785e+00 -6.678421e+05 
 2005000 -6.717695e+05  3.956807e+03  2.134979e+02  2.255865e+02  2.425143e+06 -6.674895e+05  7.195114e+00 -6.678127e+05 
 2010000 -6.717618e+05  3.952044e+03 -1.608025e+02  2.253150e+02  2.425950e+06 -6.680532e+05  7.192721e+00 -6.678097e+05 
 2015000 -6.717534e+05  3.988596e+03  1.117462e+01  2.273989e+02  2.425642e+06 -6.677479e+05  7.193634e+00 -6.677648e+05 
 2020000 -6.717513e+05  3.980606e+03 -1.657314e+01  2.269434e+02  2.425658e+06 -6.677958e+05  7.193586e+00 -6.677707e+05 
 2025000 -6.717326e+05  4.002589e+03  1.042525e+02  2.281967e+02  2.425408e+06 -6.675722e+05  7.194328e+00 -6.677301e+05 
 2030000 -6.717405e+05  4.018597e+03 -4.096957e+01  2.291093e+02  2.425865e+06 -6.677839e+05  7.192971e+00 -6.677219e+05 
 2035000 -6.717080e+05  4.014796e+03  1.307291e+02  2.288926e+02  2.425427e+06 -6.674953e+05  7.194272e+00 -6.676932e+05 
 2040000 -6.716964e+05  4.031331e+03 -1.236592e+02  2.298353e+02  2.426161e+06 -6.678523e+05  7.192095e+00 -6.676651e+05 
 2045000 -6.716826e+05  4.045752e+03  1.398197e+02  2.306575e+02  2.425498e+06 -6.674252e+05  7.194059e+00 -6.676369e+05 
 2050000 -6.716713e+05  4.046657e+03 -9.956035e+01  2.307091e+02  2.426177e+06 -6.677755e+05  7.192046e+00 -6.676247e+05 
 2055000 -6.716681e+05  4.046403e+03 -4.456201e+01  2.306946e+02  2.425936e+06 -6.676892e+05  7.192761e+00 -6.676217e+05 
 2060000 -6.716548e+05  4.069334e+03  7.729679e+01  2.320019e+02  2.425758e+06 -6.674685e+05  7.193289e+00 -6.675855e+05 
 2065000 -6.716443e+05  4.084622e+03 -1.222809e+01  2.328736e+02  2.425971e+06 -6.675782e+05  7.192657e+00 -6.675597e+05 
 2070000 -6.716166e+05  4.095012e+03 -6.725866e+01  2.334659e+02  2.426397e+06 -6.676235e+05  7.191395e+00 -6.675216e+05 
 2075000 -6.716335e+05  4.119113e+03  7.866085e+01  2.348400e+02  2.425920e+06 -6.673952e+05  7.192809e+00 -6.675144e+05 
 2080000 -6.716071e+05  4.130101e+03  6.787145e+01  2.354664e+02  2.426283e+06 -6.673742e+05  7.191734e+00 -6.674770e+05 
 2085000 -6.715960e+05  4.141952e+03 -5.663216e+00  2.361421e+02  2.426414e+06 -6.674627e+05  7.191344e+00 -6.674541e+05 
 2090000 -6.715839e+05  4.151020e+03 -3.121375e+02  2.366590e+02  2.427032e+06 -6.679057e+05  7.189513e+00 -6.674328e+05 
 2095000 -6.715977e+05  4.142498e+03 -9.567203e+01  2.361732e+02  2.426562e+06 -6.676001e+05  7.190907e+00 -6.674552e+05 
 2100000 -6.715567e+05  4.163176e+03  7.895445e+01  2.373521e+02  2.426469e+06 -6.672740e+05  7.191182e+00 -6.673936e+05 
 2105000 -6.715540e+05  4.168613e+03  1.122920e+02  2.376621e+02  2.425936e+06 -6.672153e+05  7.192760e+00 -6.673854e+05 
 2110000 -6.715291e+05  4.175102e+03  4.118367e+02  2.380320e+02  2.425594e+06 -6.667305e+05  7.193775e+00 -6.673540e+05 
 2115000 -6.715384e+05  4.203900e+03  1.604648e+02  2.396739e+02  2.426128e+06 -6.670915e+05  7.192191e+00 -6.673345e+05 
 2120000 -6.715192e+05  4.198618e+03  7.404732e+01  2.393727e+02  2.426454e+06 -6.672085e+05  7.191225e+00 -6.673206e+05 
Loop time of 4336.26 on 76 procs for 380000 steps with 135696 atoms

Performance: 7.571 ns/day, 3.170 hours/ns, 87.633 timesteps/s
96.1% CPU use with 76 MPI tasks x no OpenMP threads

MPI task timing breakdown:
Section |  min time  |  avg time  |  max time  |%varavg| %total
---------------------------------------------------------------
Pair    | 3702.1     | 3940.1     | 4181.8     | 160.4 | 90.86
Neigh   | 4.9005     | 5.0352     | 5.1375     |   2.2 |  0.12
Comm    | 104.38     | 338.23     | 583.16     | 549.8 |  7.80
Output  | 0.30019    | 0.30027    | 0.30149    |   0.0 |  0.01
Modify  | 34.222     | 42.018     | 54.047     |  58.9 |  0.97
Other   |            | 10.6       |            |       |  0.24

Nlocal:        1785.47 ave        1810 max        1767 min
Histogram: 3 6 14 16 10 9 9 5 2 2
Nghost:        5703.03 ave        5864 max        5566 min
Histogram: 4 11 19 5 3 4 11 8 7 4
Neighs:       182943.0 ave      187840 max      177269 min
Histogram: 1 2 5 14 8 14 19 7 2 4

Total # of neighbors = 13903704
Ave neighs/atom = 102.46215
Neighbor list builds = 1212
Dangerous builds = 0
	write_restart data/restart.heat_msr
System init for write_restart ...
	unfix	heat
	fix	rest all npt temp ${Temp2} ${Temp2} 0.1 iso 0 0 0.1
	fix	rest all npt temp 240 ${Temp2} 0.1 iso 0 0 0.1
	fix	rest all npt temp 240 240 0.1 iso 0 0 0.1
	run     ${T1}
	run     200000
Per MPI rank memory allocation (min/avg/max) = 5.267 | 5.269 | 5.270 Mbytes
Step PotEng KinEng Press Temp Volume Enthalpy Density TotEng 
 2120000 -6.715192e+05  4.198618e+03  7.404732e+01  2.393727e+02  2.426454e+06 -6.672085e+05  7.191225e+00 -6.673206e+05 
 2125000 -6.715053e+05  4.211337e+03  4.322673e+00  2.400979e+02  2.426351e+06 -6.672874e+05  7.191530e+00 -6.672939e+05 
 2130000 -6.715344e+05  4.223994e+03 -1.708479e+02  2.408195e+02  2.426903e+06 -6.675692e+05  7.189896e+00 -6.673104e+05 
 2135000 -6.715084e+05  4.193655e+03 -5.844970e-01  2.390898e+02  2.426283e+06 -6.673157e+05  7.191732e+00 -6.673148e+05 
 2140000 -6.715269e+05  4.214132e+03  6.148481e+01  2.402572e+02  2.426539e+06 -6.672196e+05  7.190973e+00 -6.673127e+05 
 2145000 -6.715256e+05  4.214130e+03  2.100929e+01  2.402571e+02  2.426232e+06 -6.672796e+05  7.191882e+00 -6.673115e+05 
 2150000 -6.715376e+05  4.205676e+03 -2.282271e+02  2.397751e+02  2.426994e+06 -6.676777e+05  7.189624e+00 -6.673319e+05 
 2155000 -6.715165e+05  4.228093e+03  7.761608e+00  2.410532e+02  2.426144e+06 -6.672766e+05  7.192145e+00 -6.672884e+05 
 2160000 -6.715212e+05  4.208659e+03  1.018269e+02  2.399452e+02  2.426266e+06 -6.671583e+05  7.191784e+00 -6.673125e+05 
 2165000 -6.715318e+05  4.221082e+03 -2.652572e+01  2.406534e+02  2.426657e+06 -6.673509e+05  7.190625e+00 -6.673107e+05 
 2170000 -6.715353e+05  4.211508e+03 -1.121286e+02  2.401076e+02  2.426468e+06 -6.674936e+05  7.191183e+00 -6.673238e+05 
 2175000 -6.715201e+05  4.208202e+03  1.003302e+00  2.399191e+02  2.426538e+06 -6.673104e+05  7.190975e+00 -6.673119e+05 
 2180000 -6.715230e+05  4.209146e+03  1.591264e+02  2.399730e+02  2.425909e+06 -6.670729e+05  7.192842e+00 -6.673138e+05 
 2185000 -6.715286e+05  4.203811e+03  3.386789e+01  2.396688e+02  2.426203e+06 -6.672736e+05  7.191969e+00 -6.673248e+05 
 2190000 -6.715505e+05  4.208327e+03 -3.505228e+02  2.399263e+02  2.427028e+06 -6.678731e+05  7.189525e+00 -6.673421e+05 
 2195000 -6.715117e+05  4.204941e+03 -2.606939e+01  2.397332e+02  2.426574e+06 -6.673463e+05  7.190870e+00 -6.673068e+05 
 2200000 -6.715267e+05  4.206101e+03  5.499707e+01  2.397993e+02  2.426141e+06 -6.672373e+05  7.192153e+00 -6.673206e+05 
 2205000 -6.715264e+05  4.198892e+03  2.943366e+01  2.393884e+02  2.426284e+06 -6.672829e+05  7.191730e+00 -6.673275e+05 
 2210000 -6.715517e+05  4.199887e+03 -1.020876e+02  2.394451e+02  2.426782e+06 -6.675065e+05  7.190253e+00 -6.673519e+05 
 2215000 -6.715325e+05  4.204683e+03 -5.058134e+01  2.397185e+02  2.426605e+06 -6.674045e+05  7.190780e+00 -6.673278e+05 
 2220000 -6.715295e+05  4.207446e+03  1.828586e+02  2.398760e+02  2.425982e+06 -6.670452e+05  7.192625e+00 -6.673220e+05 
 2225000 -6.715339e+05  4.210250e+03  1.109581e+02  2.400359e+02  2.426093e+06 -6.671556e+05  7.192296e+00 -6.673236e+05 
 2230000 -6.715363e+05  4.204509e+03 -3.770146e+01  2.397086e+02  2.426405e+06 -6.673889e+05  7.191371e+00 -6.673318e+05 
 2235000 -6.715183e+05  4.209953e+03 -7.574661e+01  2.400189e+02  2.426589e+06 -6.674230e+05  7.190827e+00 -6.673083e+05 
 2240000 -6.715502e+05  4.197907e+03  5.585190e+01  2.393322e+02  2.426399e+06 -6.672677e+05  7.191389e+00 -6.673523e+05 
 2245000 -6.715217e+05  4.212680e+03  1.558918e+02  2.401744e+02  2.425958e+06 -6.670729e+05  7.192697e+00 -6.673090e+05 
 2250000 -6.715340e+05  4.214699e+03 -1.505506e+02  2.402895e+02  2.426691e+06 -6.675474e+05  7.190523e+00 -6.673193e+05 
 2255000 -6.715239e+05  4.198926e+03 -4.511234e+01  2.393903e+02  2.426600e+06 -6.673933e+05  7.190794e+00 -6.673250e+05 
 2260000 -6.715236e+05  4.207116e+03  6.836369e+01  2.398572e+02  2.426252e+06 -6.672130e+05  7.191824e+00 -6.673165e+05 
 2265000 -6.715378e+05  4.213267e+03  3.513650e+01  2.402079e+02  2.426364e+06 -6.672713e+05  7.191494e+00 -6.673245e+05 
 2270000 -6.715141e+05  4.213353e+03 -3.418662e+02  2.402128e+02  2.427340e+06 -6.678187e+05  7.188601e+00 -6.673008e+05 
 2275000 -6.715337e+05  4.187477e+03 -8.567975e+01  2.387376e+02  2.426268e+06 -6.674759e+05  7.191777e+00 -6.673462e+05 
 2280000 -6.715408e+05  4.208042e+03  1.786158e+02  2.399100e+02  2.425875e+06 -6.670623e+05  7.192944e+00 -6.673328e+05 
 2285000 -6.715253e+05  4.232359e+03  1.198403e+01  2.412964e+02  2.426582e+06 -6.672748e+05  7.190846e+00 -6.672930e+05 
 2290000 -6.715190e+05  4.219588e+03 -1.617372e+02  2.405683e+02  2.426875e+06 -6.675444e+05  7.189977e+00 -6.672994e+05 
 2295000 -6.715478e+05  4.225093e+03 -4.374462e+01  2.408821e+02  2.426464e+06 -6.673890e+05  7.191197e+00 -6.673227e+05 
 2300000 -6.715401e+05  4.199060e+03  1.366583e+02  2.393979e+02  2.426117e+06 -6.671341e+05  7.192224e+00 -6.673411e+05 
 2305000 -6.715367e+05  4.217475e+03  6.758018e+01  2.404478e+02  2.426217e+06 -6.672169e+05  7.191929e+00 -6.673192e+05 
 2310000 -6.715218e+05  4.213389e+03 -1.410142e+02  2.402149e+02  2.426779e+06 -6.675220e+05  7.190262e+00 -6.673084e+05 
 2315000 -6.715470e+05  4.201567e+03 -5.721086e+01  2.395408e+02  2.426691e+06 -6.674321e+05  7.190525e+00 -6.673454e+05 
 2320000 -6.715292e+05  4.208214e+03  2.027341e+02  2.399198e+02  2.426129e+06 -6.670140e+05  7.192190e+00 -6.673210e+05 
Loop time of 2328.36 on 76 procs for 200000 steps with 135696 atoms

Performance: 7.422 ns/day, 3.234 hours/ns, 85.897 timesteps/s
95.4% CPU use with 76 MPI tasks x no OpenMP threads

MPI task timing breakdown:
Section |  min time  |  avg time  |  max time  |%varavg| %total
---------------------------------------------------------------
Pair    | 1936       | 2081.8     | 2254.2     | 128.2 | 89.41
Neigh   | 3.0695     | 3.154      | 3.2163     |   1.7 |  0.14
Comm    | 48.602     | 215.31     | 366.09     | 399.9 |  9.25
Output  | 0.15753    | 0.15757    | 0.15823    |   0.0 |  0.01
Modify  | 16.765     | 22.271     | 26.649     |  46.3 |  0.96
Other   |            | 5.638      |            |       |  0.24

Nlocal:        1785.47 ave        1808 max        1759 min
Histogram: 1 1 7 7 13 20 11 11 3 2
Nghost:        5702.29 ave        5867 max        5556 min
Histogram: 3 11 13 13 0 6 11 10 4 5
Neighs:       182903.0 ave      187165 max      177841 min
Histogram: 2 4 6 11 7 13 14 10 4 5

Total # of neighbors = 13900606
Ave neighs/atom = 102.43932
Neighbor list builds = 759
Dangerous builds = 0
	unfix	rest
	print 'Loop ${hloop}; succeeded temp ${Temp2} target ${T_heat}' append data/success.heat_msr
Loop 4; succeeded temp 240 target 1000
	variable Temp1 equal ${Temp2}
	variable Temp1 equal 240
	variable Temp2 equal ${Temp2}+${dT}
	variable Temp2 equal 240+${dT}
	variable Temp2 equal 240+47.5
next		hloop
jump		SELF l3
	fix     heat all npt temp ${Temp1} ${Temp2} 0.1 iso 0 0 0.1
	fix     heat all npt temp 240 ${Temp2} 0.1 iso 0 0 0.1
	fix     heat all npt temp 240 287.5 0.1 iso 0 0 0.1
	run	${ht_inter}
	run	380000
Per MPI rank memory allocation (min/avg/max) = 5.267 | 5.269 | 5.270 Mbytes
Step PotEng KinEng Press Temp Volume Enthalpy Density TotEng 
 2320000 -6.715292e+05  4.208214e+03  2.027341e+02  2.399198e+02  2.426129e+06 -6.670140e+05  7.192190e+00 -6.673210e+05 
 2325000 -6.715314e+05  4.212355e+03  1.946716e+01  2.401559e+02  2.426475e+06 -6.672896e+05  7.191165e+00 -6.673191e+05 
 2330000 -6.715100e+05  4.227459e+03 -2.467071e+02  2.410170e+02  2.426993e+06 -6.676562e+05  7.189630e+00 -6.672825e+05 
 2335000 -6.715026e+05  4.245183e+03 -6.622717e+01  2.420275e+02  2.426813e+06 -6.673578e+05  7.190163e+00 -6.672574e+05 
 2340000 -6.715108e+05  4.234698e+03  2.547846e+02  2.414297e+02  2.426206e+06 -6.668903e+05  7.191960e+00 -6.672761e+05 
 2345000 -6.714823e+05  4.267312e+03 -4.486431e+00  2.432891e+02  2.426659e+06 -6.672218e+05  7.190618e+00 -6.672150e+05 
 2350000 -6.714863e+05  4.270794e+03 -1.639339e+02  2.434877e+02  2.427060e+06 -6.674638e+05  7.189429e+00 -6.672155e+05 
 2355000 -6.714560e+05  4.293070e+03  1.868743e+02  2.447577e+02  2.426434e+06 -6.668800e+05  7.191287e+00 -6.671630e+05 
 2360000 -6.714377e+05  4.311368e+03 -1.339292e+01  2.458009e+02  2.426738e+06 -6.671466e+05  7.190385e+00 -6.671263e+05 
 2365000 -6.714170e+05  4.310754e+03 -1.494548e+02  2.457659e+02  2.427254e+06 -6.673327e+05  7.188857e+00 -6.671063e+05 
 2370000 -6.714211e+05  4.301171e+03  2.223407e+02  2.452195e+02  2.426389e+06 -6.667832e+05  7.191418e+00 -6.671199e+05 
 2375000 -6.714048e+05  4.336851e+03 -2.040298e+01  2.472537e+02  2.426819e+06 -6.670988e+05  7.190143e+00 -6.670679e+05 
 2380000 -6.713982e+05  4.346568e+03  2.360400e+01  2.478077e+02  2.426878e+06 -6.670159e+05  7.189970e+00 -6.670517e+05 
 2385000 -6.713741e+05  4.349870e+03 -5.116710e+01  2.479959e+02  2.427128e+06 -6.671018e+05  7.189228e+00 -6.670243e+05 
 2390000 -6.713781e+05  4.370904e+03  4.262224e+01  2.491951e+02  2.426841e+06 -6.669426e+05  7.190079e+00 -6.670072e+05 
 2395000 -6.713632e+05  4.361359e+03 -1.846368e+02  2.486510e+02  2.427499e+06 -6.672816e+05  7.188131e+00 -6.670018e+05 
 2400000 -6.713609e+05  4.388411e+03  4.660897e+01  2.501933e+02  2.426835e+06 -6.669019e+05  7.190098e+00 -6.669725e+05 
 2405000 -6.713617e+05  4.397684e+03 -1.152230e+02  2.507219e+02  2.427156e+06 -6.671386e+05  7.189145e+00 -6.669640e+05 
[...]
 4355000 -6.682865e+05  7.353213e+03  2.022217e+02  4.192233e+02  2.437073e+06 -6.606257e+05  7.159891e+00 -6.609333e+05 
 4360000 -6.682273e+05  7.366364e+03  4.278589e+02  4.199731e+02  2.436541e+06 -6.602103e+05  7.161456e+00 -6.608610e+05 
 4365000 -6.682484e+05  7.386370e+03  3.391354e+02  4.211137e+02  2.436532e+06 -6.603463e+05  7.161482e+00 -6.608621e+05 
 4370000 -6.682260e+05  7.401964e+03  2.497865e+02  4.220028e+02  2.436899e+06 -6.604442e+05  7.160404e+00 -6.608241e+05 
 4375000 -6.682100e+05  7.415049e+03  2.209247e+02  4.227488e+02  2.437317e+06 -6.604589e+05  7.159175e+00 -6.607950e+05 
 4380000 -6.682327e+05  7.429683e+03  1.162186e+02  4.235831e+02  2.437022e+06 -6.606263e+05  7.160041e+00 -6.608030e+05 
 4385000 -6.682096e+05  7.399538e+03  2.005810e+02  4.218645e+02  2.437456e+06 -6.605049e+05  7.158766e+00 -6.608101e+05 
 4390000 -6.682133e+05  7.439939e+03  1.158792e+02  4.241678e+02  2.437329e+06 -6.605971e+05  7.159140e+00 -6.607734e+05 
 4395000 -6.681890e+05  7.491756e+03 -5.804122e+00  4.271220e+02  2.437885e+06 -6.607061e+05  7.157506e+00 -6.606973e+05 
 4400000 -6.681539e+05  7.449127e+03 -1.590119e+02  4.246916e+02  2.438291e+06 -6.609467e+05  7.156316e+00 -6.607047e+05 
 4405000 -6.681566e+05  7.472916e+03 -8.354819e+01  4.260479e+02  2.438038e+06 -6.608108e+05  7.157058e+00 -6.606837e+05 
 4410000 -6.681290e+05  7.469073e+03 -2.268498e+02  4.258288e+02  2.438384e+06 -6.610051e+05  7.156041e+00 -6.606599e+05 
 4415000 -6.681203e+05  7.470506e+03 -8.766970e+01  4.259105e+02  2.438116e+06 -6.607832e+05  7.156828e+00 -6.606498e+05 
 4420000 -6.681226e+05  7.523821e+03  1.071279e+00  4.289501e+02  2.437802e+06 -6.605972e+05  7.157751e+00 -6.605988e+05 
 4425000 -6.681302e+05  7.490328e+03  2.328240e+02  4.270406e+02  2.437579e+06 -6.602856e+05  7.158405e+00 -6.606398e+05 
 4430000 -6.680800e+05  7.522531e+03  2.619607e+02  4.288766e+02  2.437417e+06 -6.601589e+05  7.158882e+00 -6.605575e+05 
 4435000 -6.680569e+05  7.529984e+03  5.278692e+01  4.293015e+02  2.438193e+06 -6.604466e+05  7.156602e+00 -6.605269e+05 
 4440000 -6.680514e+05  7.544922e+03 -1.188534e+02  4.301531e+02  2.438406e+06 -6.606874e+05  7.155978e+00 -6.605065e+05 
Loop time of 4350.34 on 76 procs for 380000 steps with 135696 atoms

Performance: 7.547 ns/day, 3.180 hours/ns, 87.350 timesteps/s
96.4% CPU use with 76 MPI tasks x no OpenMP threads

MPI task timing breakdown:
Section |  min time  |  avg time  |  max time  |%varavg| %total
---------------------------------------------------------------
Pair    | 3757.6     | 3976.6     | 4171.4     | 155.5 | 91.41
Neigh   | 12.283     | 12.525     | 12.829     |   3.3 |  0.29
Comm    | 118.35     | 308.53     | 533.71     | 565.9 |  7.09
Output  | 0.30047    | 0.30054    | 0.3017     |   0.0 |  0.01
Modify  | 35.019     | 41.728     | 80.074     | 150.9 |  0.96
Other   |            | 10.65      |            |       |  0.24

Nlocal:        1785.47 ave        1815 max        1760 min
Histogram: 4 4 8 11 17 11 11 6 2 2
Nghost:        5685.07 ave        5849 max        5544 min
Histogram: 6 11 12 9 2 4 14 8 5 5
Neighs:       182092.0 ave      187215 max      176820 min
Histogram: 1 5 12 12 7 9 13 9 5 3

Total # of neighbors = 13838955
Ave neighs/atom = 101.98499
Neighbor list builds = 3156
Dangerous builds = 0
	write_restart data/restart.heat_msr
System init for write_restart ...
	unfix	heat
	fix	rest all npt temp ${Temp2} ${Temp2} 0.1 iso 0 0 0.1
	fix	rest all npt temp 430 ${Temp2} 0.1 iso 0 0 0.1
	fix	rest all npt temp 430 430 0.1 iso 0 0 0.1
	run     ${T1}
	run     200000
Per MPI rank memory allocation (min/avg/max) = 5.269 | 5.271 | 5.273 Mbytes
Step PotEng KinEng Press Temp Volume Enthalpy Density TotEng 
 4440000 -6.680514e+05  7.544922e+03 -1.188534e+02  4.301531e+02  2.438406e+06 -6.606874e+05  7.155978e+00 -6.605065e+05 
 4445000 -6.680721e+05  7.548193e+03  8.794249e+01  4.303396e+02  2.437763e+06 -6.603901e+05  7.157864e+00 -6.605240e+05 
 4450000 -6.680362e+05  7.565426e+03  6.618696e+01  4.313221e+02  2.438062e+06 -6.603701e+05  7.156987e+00 -6.604708e+05 
 4455000 -6.680555e+05  7.554730e+03 -3.171265e+02  4.307123e+02  2.438707e+06 -6.609835e+05  7.155094e+00 -6.605008e+05 
 4460000 -6.680608e+05  7.548839e+03 -5.917044e+01  4.303764e+02  2.438421e+06 -6.606020e+05  7.155933e+00 -6.605119e+05 
 4465000 -6.680899e+05  7.541236e+03  4.410101e+02  4.299429e+02  2.437207e+06 -6.598778e+05  7.159498e+00 -6.605487e+05 
 4470000 -6.680781e+05  7.559558e+03 -7.169187e+01  4.309875e+02  2.438427e+06 -6.606277e+05  7.155916e+00 -6.605185e+05 
 4475000 -6.680666e+05  7.527494e+03 -1.640342e+02  4.291595e+02  2.438625e+06 -6.607888e+05  7.155335e+00 -6.605391e+05 
 4480000 -6.680794e+05  7.554111e+03  3.401575e+02  4.306770e+02  2.437349e+06 -6.600078e+05  7.159080e+00 -6.605253e+05 
 4485000 -6.680794e+05  7.531499e+03 -2.124798e+01  4.293878e+02  2.438087e+06 -6.605803e+05  7.156912e+00 -6.605479e+05 
 4490000 -6.680378e+05  7.546220e+03 -1.376343e+02  4.302271e+02  2.438196e+06 -6.607010e+05  7.156593e+00 -6.604916e+05 
 4495000 -6.680531e+05  7.560155e+03  2.655848e+02  4.310216e+02  2.437758e+06 -6.600888e+05  7.157879e+00 -6.604929e+05 
 4500000 -6.680690e+05  7.526553e+03  4.484759e+01  4.291059e+02  2.437974e+06 -6.604742e+05  7.157247e+00 -6.605424e+05 
 4505000 -6.680889e+05  7.546882e+03 -1.124943e+02  4.302649e+02  2.438273e+06 -6.607132e+05  7.156367e+00 -6.605420e+05 
 4510000 -6.680818e+05  7.522814e+03  1.614910e+02  4.288927e+02  2.437620e+06 -6.603133e+05  7.158285e+00 -6.605590e+05 
 4515000 -6.680592e+05  7.556172e+03  9.896018e+01  4.307945e+02  2.437850e+06 -6.603525e+05  7.157610e+00 -6.605030e+05 
 4520000 -6.680704e+05  7.550115e+03 -1.397596e+02  4.304492e+02  2.438512e+06 -6.607330e+05  7.155667e+00 -6.605203e+05 
 4525000 -6.681286e+05  7.543822e+03  1.979851e+02  4.300904e+02  2.437751e+06 -6.602836e+05  7.157899e+00 -6.605848e+05 
 4530000 -6.680636e+05  7.533427e+03  1.189630e+02  4.294977e+02  2.437922e+06 -6.603492e+05  7.157398e+00 -6.605302e+05 
 4535000 -6.680749e+05  7.555473e+03 -1.918632e+01  4.307546e+02  2.438148e+06 -6.605486e+05  7.156736e+00 -6.605194e+05 
 4540000 -6.680905e+05  7.539502e+03  3.365869e+01  4.298441e+02  2.438040e+06 -6.604998e+05  7.157051e+00 -6.605510e+05 
 4545000 -6.680937e+05  7.532430e+03  5.170933e+01  4.294409e+02  2.438118e+06 -6.604825e+05  7.156822e+00 -6.605612e+05 
 4550000 -6.680890e+05  7.519975e+03 -2.637112e+02  4.287309e+02  2.438750e+06 -6.609705e+05  7.154969e+00 -6.605691e+05 
 4555000 -6.680763e+05  7.582053e+03  1.001363e+01  4.322700e+02  2.438073e+06 -6.604790e+05  7.156956e+00 -6.604943e+05 
 4560000 -6.680864e+05  7.536023e+03  1.695540e+02  4.296458e+02  2.437543e+06 -6.602924e+05  7.158511e+00 -6.605504e+05 
 4565000 -6.681023e+05  7.545272e+03 -1.107673e+02  4.301730e+02  2.438232e+06 -6.607256e+05  7.156488e+00 -6.605570e+05 
 4570000 -6.681131e+05  7.552388e+03  1.514370e+02  4.305788e+02  2.437871e+06 -6.603303e+05  7.157549e+00 -6.605608e+05 
 4575000 -6.680466e+05  7.572282e+03  5.122231e+01  4.317130e+02  2.438186e+06 -6.603964e+05  7.156624e+00 -6.604743e+05 
 4580000 -6.680604e+05  7.544854e+03 -3.181076e+02  4.301493e+02  2.438586e+06 -6.609997e+05  7.155450e+00 -6.605155e+05 
 4585000 -6.681165e+05  7.513793e+03  8.565628e+01  4.283784e+02  2.437994e+06 -6.604724e+05  7.157185e+00 -6.606027e+05 
 4590000 -6.681059e+05  7.553114e+03  1.432554e+02  4.306202e+02  2.437691e+06 -6.603348e+05  7.158076e+00 -6.605528e+05 
 4595000 -6.680502e+05  7.541647e+03 -2.862117e+02  4.299664e+02  2.438800e+06 -6.609442e+05  7.154820e+00 -6.605085e+05 
 4600000 -6.680744e+05  7.510048e+03  1.410312e+02  4.281648e+02  2.438002e+06 -6.603498e+05  7.157163e+00 -6.605644e+05 
 4605000 -6.680711e+05  7.558127e+03  1.329549e+02  4.309060e+02  2.438080e+06 -6.603107e+05  7.156933e+00 -6.605130e+05 
 4610000 -6.680857e+05  7.533917e+03 -1.692540e+02  4.295257e+02  2.438154e+06 -6.608093e+05  7.156716e+00 -6.605518e+05 
 4615000 -6.680553e+05  7.529693e+03  1.237404e+02  4.292849e+02  2.437900e+06 -6.603373e+05  7.157464e+00 -6.605256e+05 
 4620000 -6.680713e+05  7.558206e+03  1.233202e+02  4.309105e+02  2.437793e+06 -6.603254e+05  7.157778e+00 -6.605131e+05 
 4625000 -6.680852e+05  7.536100e+03 -2.082892e+02  4.296501e+02  2.438578e+06 -6.608661e+05  7.155474e+00 -6.605491e+05 
 4630000 -6.680743e+05  7.532375e+03  1.100978e+02  4.294378e+02  2.438070e+06 -6.603744e+05  7.156963e+00 -6.605419e+05 
 4635000 -6.680682e+05  7.526899e+03  1.549683e+02  4.291256e+02  2.437723e+06 -6.603055e+05  7.157982e+00 -6.605413e+05 
 4640000 -6.680738e+05  7.521842e+03 -2.200207e+02  4.288372e+02  2.439043e+06 -6.608869e+05  7.154108e+00 -6.605520e+05 
Loop time of 2283.81 on 76 procs for 200000 steps with 135696 atoms

Performance: 7.566 ns/day, 3.172 hours/ns, 87.573 timesteps/s
96.4% CPU use with 76 MPI tasks x no OpenMP threads

MPI task timing breakdown:
Section |  min time  |  avg time  |  max time  |%varavg| %total
---------------------------------------------------------------
Pair    | 1972.6     | 2085.6     | 2206.4     | 113.1 | 91.32
Neigh   | 6.8786     | 7.004      | 7.1609     |   2.4 |  0.31
Comm    | 47.005     | 163.44     | 276.48     | 406.7 |  7.16
Output  | 0.15781    | 0.15784    | 0.15842    |   0.0 |  0.01
Modify  | 17.75      | 21.989     | 43.2       | 122.9 |  0.96
Other   |            | 5.596      |            |       |  0.25

Nlocal:        1785.47 ave        1811 max        1756 min
Histogram: 2 2 4 13 15 13 7 7 10 3
Nghost:        5684.84 ave        5848 max        5541 min
Histogram: 7 10 8 12 3 3 12 9 9 3
Neighs:       182051.0 ave      186844 max      177131 min
Histogram: 1 4 15 10 8 11 8 10 6 3

Total # of neighbors = 13835870
Ave neighs/atom = 101.96225
Neighbor list builds = 1765
Dangerous builds = 0
	unfix	rest
	print 'Loop ${hloop}; succeeded temp ${Temp2} target ${T_heat}' append data/success.heat_msr
Loop 8; succeeded temp 430 target 1000
	variable Temp1 equal ${Temp2}
	variable Temp1 equal 430
	variable Temp2 equal ${Temp2}+${dT}
	variable Temp2 equal 430+${dT}
	variable Temp2 equal 430+47.5
next		hloop
jump		SELF l3
	fix     heat all npt temp ${Temp1} ${Temp2} 0.1 iso 0 0 0.1
	fix     heat all npt temp 430 ${Temp2} 0.1 iso 0 0 0.1
	fix     heat all npt temp 430 477.5 0.1 iso 0 0 0.1
	run	${ht_inter}
	run	380000
Per MPI rank memory allocation (min/avg/max) = 5.269 | 5.271 | 5.273 Mbytes
Step PotEng KinEng Press Temp Volume Enthalpy Density TotEng 
 4640000 -6.680738e+05  7.521842e+03 -2.200207e+02  4.288372e+02  2.439043e+06 -6.608869e+05  7.154108e+00 -6.605520e+05 
 4645000 -6.681009e+05  7.539451e+03  2.109273e+02  4.298412e+02  2.437751e+06 -6.602405e+05  7.157900e+00 -6.605614e+05 
 4650000 -6.680384e+05  7.557203e+03  8.699255e+01  4.308533e+02  2.437979e+06 -6.603488e+05  7.157231e+00 -6.604812e+05 
 4655000 -6.680355e+05  7.539420e+03 -2.978982e+02  4.298395e+02  2.438725e+06 -6.609495e+05  7.155042e+00 -6.604961e+05 
 4660000 -6.680585e+05  7.578272e+03  9.762607e+00  4.320545e+02  2.438159e+06 -6.604653e+05  7.156704e+00 -6.604802e+05 
 4665000 -6.680171e+05  7.608183e+03  1.295117e+02  4.337598e+02  2.437832e+06 -6.602119e+05  7.157664e+00 -6.604089e+05 
 4670000 -6.680296e+05  7.632992e+03 -1.245011e+02  4.351742e+02  2.438741e+06 -6.605861e+05  7.154993e+00 -6.603966e+05 
 4675000 -6.680097e+05  7.607098e+03 -5.039178e+01  4.336979e+02  2.438407e+06 -6.604792e+05  7.155975e+00 -6.604026e+05 
 4680000 -6.680212e+05  7.653838e+03  1.358731e+02  4.363627e+02  2.437932e+06 -6.601606e+05  7.157369e+00 -6.603674e+05 
 4685000 -6.680022e+05  7.611894e+03  6.874328e+01  4.339714e+02  2.438270e+06 -6.602857e+05  7.156376e+00 -6.603903e+05 
 4690000 -6.679652e+05  7.649443e+03 -6.903283e+01  4.361121e+02  2.438527e+06 -6.604208e+05  7.155623e+00 -6.603158e+05 
 4695000 -6.679658e+05  7.678827e+03 -2.257178e+02  4.377873e+02  2.438909e+06 -6.606306e+05  7.154501e+00 -6.602870e+05 
 4700000 -6.679750e+05  7.671415e+03 -5.632632e+00  4.373648e+02  2.438387e+06 -6.603121e+05  7.156035e+00 -6.603036e+05 
 4705000 -6.679396e+05  7.709461e+03  4.171442e+02  4.395339e+02  2.438178e+06 -6.595954e+05  7.156648e+00 -6.602302e+05 
 4710000 -6.679228e+05  7.731519e+03  1.633717e+02  4.407914e+02  2.438722e+06 -6.599426e+05  7.155051e+00 -6.601912e+05 
 4715000 -6.679527e+05  7.715435e+03 -6.824557e+01  4.398744e+02  2.438544e+06 -6.603411e+05  7.155574e+00 -6.602372e+05 
 4720000 -6.679104e+05  7.731977e+03 -3.049224e+02  4.408176e+02  2.439343e+06 -6.606427e+05  7.153230e+00 -6.601784e+05 
 4725000 -6.678882e+05  7.732603e+03 -1.612736e+02  4.408533e+02  2.439057e+06 -6.604012e+05  7.154068e+00 -6.601556e+05 
 4730000 -6.678777e+05  7.724429e+03  2.008401e+02  4.403872e+02  2.438133e+06 -6.598476e+05  7.156780e+00 -6.601532e+05 
 4735000 -6.678484e+05  7.761227e+03  3.451638e+02  4.424852e+02  2.438166e+06 -6.595619e+05  7.156682e+00 -6.600872e+05 
 4740000 -6.678497e+05  7.803507e+03  5.324760e+01  4.448956e+02  2.438922e+06 -6.599652e+05  7.154463e+00 -6.600462e+05 
 4745000 -6.678352e+05  7.769030e+03  5.720060e+01  4.429300e+02  2.438865e+06 -6.599791e+05  7.154632e+00 -6.600662e+05 
 4750000 -6.678080e+05  7.782528e+03 -5.453528e+01  4.436996e+02  2.439120e+06 -6.601085e+05  7.153884e+00 -6.600255e+05 
 4755000 -6.677975e+05  7.790661e+03 -2.468701e+02  4.441633e+02  2.439647e+06 -6.603828e+05  7.152338e+00 -6.600069e+05 
 4760000 -6.678047e+05  7.802143e+03 -1.509255e+02  4.448179e+02  2.439293e+06 -6.602323e+05  7.153375e+00 -6.600025e+05 
 4765000 -6.678074e+05  7.856190e+03 -2.482722e+02  4.478992e+02  2.439642e+06 -6.603293e+05  7.152351e+00 -6.599512e+05 
 4770000 -6.677623e+05  7.798267e+03 -7.979031e+01  4.445969e+02  2.439407e+06 -6.600855e+05  7.153041e+00 -6.599640e+05 
 4775000 -6.677552e+05  7.831994e+03 -1.178634e+01  4.465197e+02  2.439417e+06 -6.599412e+05  7.153012e+00 -6.599232e+05 
 4780000 -6.677792e+05  7.852852e+03  1.290582e+02  4.477089e+02  2.438744e+06 -6.597299e+05  7.154987e+00 -6.599264e+05 
 4785000 -6.677310e+05  7.882287e+03  4.063126e+01  4.493871e+02  2.439060e+06 -6.597869e+05  7.154059e+00 -6.598487e+05 
 4790000 -6.677530e+05  7.900971e+03  3.022398e+02  4.504522e+02  2.438510e+06 -6.593920e+05  7.155672e+00 -6.598520e+05 
 4795000 -6.677216e+05  7.847595e+03  1.442010e+02  4.474092e+02  2.438817e+06 -6.596545e+05  7.154770e+00 -6.598740e+05 
 4800000 -6.677080e+05  7.904145e+03  1.786598e+02  4.506332e+02  2.438951e+06 -6.595319e+05  7.154379e+00 -6.598039e+05 
 4805000 -6.676760e+05  7.883861e+03  1.784906e+02  4.494768e+02  2.438830e+06 -6.595205e+05  7.154733e+00 -6.597922e+05 
 4810000 -6.676378e+05  7.870443e+03  1.989551e+02  4.487118e+02  2.439074e+06 -6.594645e+05  7.154019e+00 -6.597674e+05 
 4815000 -6.676857e+05  7.946280e+03  1.176017e+02  4.530354e+02  2.439324e+06 -6.595603e+05  7.153285e+00 -6.597394e+05 
 4820000 -6.676515e+05  7.925915e+03  1.671925e+02  4.518744e+02  2.438924e+06 -6.594710e+05  7.154456e+00 -6.597256e+05 
 4825000 -6.676475e+05  7.963174e+03  1.799403e+02  4.539986e+02  2.439116e+06 -6.594104e+05  7.153895e+00 -6.596843e+05 
 4830000 -6.676459e+05  7.972107e+03  1.471382e+02  4.545079e+02  2.439020e+06 -6.594498e+05  7.154177e+00 -6.596738e+05 
 4835000 -6.676487e+05  7.964609e+03  5.099177e+01  4.540804e+02  2.439500e+06 -6.596065e+05  7.152769e+00 -6.596841e+05 
 4840000 -6.675994e+05  7.966882e+03 -8.449485e+00  4.542100e+02  2.439898e+06 -6.596454e+05  7.151601e+00 -6.596325e+05 
 4845000 -6.676381e+05  8.000340e+03 -1.042203e+02  4.561175e+02  2.439975e+06 -6.597965e+05  7.151377e+00 -6.596377e+05 
 4850000 -6.675755e+05  7.999713e+03 -3.732006e+02  4.560818e+02  2.440714e+06 -6.601443e+05  7.149212e+00 -6.595758e+05 
 4855000 -6.675828e+05  8.032013e+03 -4.644597e+02  4.579233e+02  2.440908e+06 -6.602584e+05  7.148644e+00 -6.595508e+05 
 4860000 -6.675611e+05  8.025571e+03 -1.388563e+02  4.575560e+02  2.440099e+06 -6.597470e+05  7.151012e+00 -6.595355e+05 
 4865000 -6.675528e+05  8.000141e+03 -2.106534e+01  4.561062e+02  2.440018e+06 -6.595847e+05  7.151249e+00 -6.595527e+05 
 4870000 -6.675502e+05  8.055174e+03  3.883743e+01  4.592437e+02  2.439618e+06 -6.594359e+05  7.152422e+00 -6.594950e+05 
 4875000 -6.675612e+05  8.079888e+03  4.022633e+02  4.606527e+02  2.438952e+06 -6.588690e+05  7.154377e+00 -6.594813e+05 
 4880000 -6.674974e+05  8.075807e+03  4.830706e+01  4.604201e+02  2.439879e+06 -6.593480e+05  7.151657e+00 -6.594216e+05 
 4885000 -6.675059e+05  8.076679e+03  3.071487e+00  4.604698e+02  2.440137e+06 -6.594245e+05  7.150901e+00 -6.594292e+05 
 4890000 -6.674857e+05  8.095351e+03 -1.785384e+02  4.615343e+02  2.440316e+06 -6.596623e+05  7.150377e+00 -6.593903e+05 
 4895000 -6.674982e+05  8.054505e+03 -3.111874e+02  4.592056e+02  2.440495e+06 -6.599178e+05  7.149851e+00 -6.594437e+05 
 4900000 -6.674935e+05  8.115296e+03 -1.189924e+01  4.626714e+02  2.440148e+06 -6.593964e+05  7.150868e+00 -6.593783e+05 
 4905000 -6.674591e+05  8.113670e+03  3.691799e+02  4.625787e+02  2.439591e+06 -6.587833e+05  7.152501e+00 -6.593454e+05 
 4910000 -6.674591e+05  8.162359e+03  1.945537e+01  4.653546e+02  2.440145e+06 -6.592671e+05  7.150877e+00 -6.592968e+05 
 4915000 -6.674707e+05  8.167546e+03 -1.666717e+02  4.656503e+02  2.440579e+06 -6.595571e+05  7.149608e+00 -6.593032e+05 
 4920000 -6.674057e+05  8.155006e+03 -2.715834e+01  4.649354e+02  2.440380e+06 -6.592920e+05  7.150189e+00 -6.592507e+05 
 4925000 -6.673896e+05  8.180370e+03  1.189292e+02  4.663815e+02  2.440333e+06 -6.590281e+05  7.150328e+00 -6.592092e+05 
 4930000 -6.674024e+05  8.189005e+03  1.080096e+02  4.668737e+02  2.440116e+06 -6.590489e+05  7.150962e+00 -6.592134e+05 
 4935000 -6.674141e+05  8.182702e+03 -2.449411e+01  4.665144e+02  2.440191e+06 -6.592687e+05  7.150744e+00 -6.592314e+05 
 4940000 -6.673459e+05  8.226112e+03 -1.566908e+01  4.689893e+02  2.440750e+06 -6.591436e+05  7.149104e+00 -6.591197e+05 
 4945000 -6.673724e+05  8.184675e+03  1.294073e+02  4.666269e+02  2.440036e+06 -6.589906e+05  7.151198e+00 -6.591877e+05 
 4950000 -6.673512e+05  8.219764e+03  9.874769e+01  4.686274e+02  2.440717e+06 -6.589810e+05  7.149202e+00 -6.591314e+05 
 4955000 -6.673506e+05  8.255531e+03 -7.258281e+01  4.706666e+02  2.441020e+06 -6.592056e+05  7.148316e+00 -6.590950e+05 
 4960000 -6.673395e+05  8.227249e+03  1.482256e+02  4.690541e+02  2.440166e+06 -6.588865e+05  7.150816e+00 -6.591122e+05 
 4965000 -6.673171e+05  8.267947e+03 -2.138500e+01  4.713744e+02  2.441109e+06 -6.590817e+05  7.148053e+00 -6.590491e+05 
 4970000 -6.673210e+05  8.249790e+03 -1.672540e+02  4.703392e+02  2.440980e+06 -6.593260e+05  7.148432e+00 -6.590712e+05 
 4975000 -6.672970e+05  8.288268e+03  1.390724e+02  4.725330e+02  2.440449e+06 -6.587969e+05  7.149987e+00 -6.590088e+05 
 4980000 -6.672468e+05  8.276992e+03  3.573847e+01  4.718901e+02  2.441101e+06 -6.589154e+05  7.148077e+00 -6.589698e+05 
 4985000 -6.672548e+05  8.290876e+03 -2.619453e+02  4.726816e+02  2.441300e+06 -6.593630e+05  7.147494e+00 -6.589639e+05 
 4990000 -6.672726e+05  8.325704e+03  8.988291e+01  4.746673e+02  2.440451e+06 -6.588100e+05  7.149980e+00 -6.589469e+05 
 4995000 -6.672551e+05  8.338579e+03  5.500383e+00  4.754013e+02  2.440631e+06 -6.589082e+05  7.149455e+00 -6.589166e+05 
 5000000 -6.672379e+05  8.311279e+03 -1.379284e+02  4.738449e+02  2.441237e+06 -6.591368e+05  7.147679e+00 -6.589266e+05 
 5005000 -6.672301e+05  8.328625e+03  4.074872e+02  4.748338e+02  2.440146e+06 -6.582809e+05  7.150875e+00 -6.589015e+05 
 5010000 -6.671971e+05  8.337996e+03 -1.694332e+02  4.753681e+02  2.441446e+06 -6.591173e+05  7.147067e+00 -6.588591e+05 
 5015000 -6.671993e+05  8.360444e+03 -2.884197e+01  4.766478e+02  2.441242e+06 -6.588828e+05  7.147664e+00 -6.588388e+05 
 5020000 -6.671818e+05  8.371703e+03  1.731443e+02  4.772898e+02  2.440749e+06 -6.585464e+05  7.149109e+00 -6.588101e+05 
Loop time of 4367.57 on 76 procs for 380000 steps with 135696 atoms

